 Gaussian 09, Revision D.01,
 Gaussian 09:  ES64L-G09RevD.01 24-Apr-2013

 -------------------------------------------------------------------
 #p b3lyp/6-31g* pop=mk empiricaldispersion=gd3 int(ultrafine) force
 -------------------------------------------------------------------

 -------
 aspirin
 -------
 Symbolic Z-matrix:
 Charge =  0 Multiplicity = 1

                         Standard orientation:
 ---------------------------------------------------------------------
 Center     Atomic      Atomic             Coordinates (Angstroms)
 Number     Number       Type             X           Y           Z
 ---------------------------------------------------------------------
      1          6           0       -2.432937   -0.293994   -0.012915
      2          6           0       -0.140456   -1.940940   -0.127511
      3          6           0       -2.626951   -1.673334   -0.020270
      4          6           0       -1.451482   -2.444122   -0.081238
      5          6           0        3.402366    0.730989    0.038051
      6          6           0       -1.131150    0.289712   -0.013786
      7          6           0       -0.002941   -0.519913   -0.114119
      8          8           0       -1.960194    2.521771    0.531355
      9          8           0        2.648187   -1.478572    0.395667
     10          8           0       -0.059618    2.457835   -0.474381
     11          6           0       -1.094995    1.842532    0.027867
     12          6           0        2.406349   -0.356560   -0.051789
     13          8           0        1.210661    0.164371   -0.158025
     14          1           0        0.592222    1.736869   -0.461255
     15          1           0       -3.275515    0.396325    0.053313
     16          1           0        0.709587   -2.608339   -0.190100
     17          1           0       -3.632442   -2.081493    0.086812
     18          1           0       -1.641647   -3.510088   -0.008849
     19          1           0        3.310864    1.077822    1.091365
     20          1           0        4.410173    0.292569   -0.138986
     21          1           0        3.247648    1.566864   -0.654958
 ---------------------------------------------------------------------

 SCF Done:  E(RB3LYP) =  -648.674794613     A.U. after   15 cycles

 The electronic state is 1-A.
 Alpha  occ. eigenvalues --  -19.25863 -19.18848 -19.16218 -19.12357 -10.35215
 Alpha  occ. eigenvalues --  -10.31977 -10.29486 -10.23150 -10.22329 -10.22137
 Alpha  occ. eigenvalues --  -10.21978 -10.21786 -10.21472  -1.17217  -1.11772
 Alpha  occ. eigenvalues --   -1.04566  -1.01052  -0.88303  -0.81456  -0.77527
 Alpha  occ. eigenvalues --   -0.75822  -0.69031  -0.64880  -0.61218  -0.59746
 Alpha  occ. eigenvalues --   -0.54910  -0.53058  -0.52359  -0.51659  -0.49088
 Alpha  occ. eigenvalues --   -0.47030  -0.45396  -0.45217  -0.44061  -0.43531
 Alpha  occ. eigenvalues --   -0.42922  -0.41622  -0.40307  -0.38341  -0.38168
 Alpha  occ. eigenvalues --   -0.35757  -0.35101  -0.30780  -0.29622  -0.27553
 Alpha  occ. eigenvalues --   -0.26858  -0.26302
 Alpha virt. eigenvalues --   -0.05561  -0.04324  -0.01052   0.04334   0.07039
 Alpha virt. eigenvalues --    0.08249   0.11630   0.12921   0.14318   0.14468
 Alpha virt. eigenvalues --    0.14835   0.16987   0.17627   0.18258   0.20926

 Mulliken charges:
               1
     1  C   -0.173233
     2  C   -0.136766
     3  C   -0.108023
     4  C   -0.152869
     5  C   -0.529312
     6  C   -0.009142
     7  C    0.290768
     8  O   -0.448732
     9  O   -0.447888
    10  O   -0.549851
    11  C    0.508815
    12  C    0.582372
    13  O   -0.515314
    14  H    0.440334
    15  H    0.175491
    16  H    0.193441
    17  H    0.156851
    18  H    0.145328
    19  H    0.207554
    20  H    0.192703
    21  H    0.177472
 Sum of Mulliken charges =   0.00000

 Dipole moment (field-independent basis, Debye):
    X=              1.7124    Y=             -2.8374    Z=             -1.2205  Tot=              3.5316
 Quadrupole moment (field-independent basis, Debye-Ang):
   XX=            -67.1559   YY=            -83.3549   ZZ=            -74.6609
   XY=             16.1308   XZ=             -0.2568   YZ=             -0.1634

 ESP charges:
               1
     1  C   -0.033263
     2  C   -0.237517
     3  C   -0.166450
     4  C   -0.071858
     5  C   -0.580505
     6  C   -0.297857
     7  C    0.292359
     8  O   -0.499861
     9  O   -0.454711
    10  O   -0.493077
    11  C    0.724394
    12  C    0.639082
    13  O   -0.209036
    14  H    0.281081
    15  H    0.123231
    16  H    0.165698
    17  H    0.154561
    18  H    0.128141
    19  H    0.200759
    20  H    0.160385
    21  H    0.174444
 Sum of ESP charges =   0.00000

 1\1\GINC-NODE611\Force\RB3LYP\6-31G(d)\C9H8O4\MBDX6CW3\07-Aug-2023\0\\
 #p b3lyp/6-31g* pop=mk empiricaldispersion=gd3 int(ultrafine) force\\a
 spirin\\0,1\C,14.00700688,11.50742531,13.62611771\C,11.89465523,13.371
 58442,13.83566856\C,13.86655331,12.19339013,14.83027697\C,12.80065656,
 13.11056256,14.87737417\C,9.56552863,13.14263821,10.06194949\C,13.1000
 0539,11.68705463,12.5396347\C,12.08558202,12.63668537,12.62658715\O,13
 .93234968,9.74253058,11.31790996\O,9.48296845,13.79678607,12.33001232\
 O,12.98000693,11.25372767,10.11911511\C,13.38393211,10.82019806,11.281

 Normal termination of Gaussian 09 at Mon Aug  7 12:54:53 2023.
