 Gaussian 09, Revision D.01,
 Gaussian 09:  ES64L-G09RevD.01 24-Apr-2013

 -------------------------------------------------------------------
 #p b3lyp/6-31g* pop=mk empiricaldispersion=gd3 int(ultrafine) force
 -------------------------------------------------------------------

 -------
 aspirin
 -------
 Symbolic Z-matrix:
 Charge =  0 Multiplicity = 1

                         Standard orientation:
 ---------------------------------------------------------------------
 Center     Atomic      Atomic             Coordinates (Angstroms)
 Number     Number       Type             X           Y           Z
 ---------------------------------------------------------------------
      1          6           0        2.274963    0.535822    0.278397
      2          6           0       -0.052112    1.831126   -0.431441
      3          6           0        2.262367    1.910093    0.002829
      4          6           0        1.083543    2.540803   -0.243822
      5          6           0       -3.538415   -0.346168   -0.343379
      6          6           0        1.151417   -0.250208   -0.075849
      7          6           0       -0.057145    0.375533   -0.288843
      8          8           0        2.239280   -2.322504    0.470661
      9          8           0       -2.207896    0.569908    1.434537
     10          8           0        0.321764   -2.424342   -0.570492
     11          6           0        1.218512   -1.716619    0.116881
     12          6           0       -2.247903    0.040449    0.351482
     13          8           0       -1.256349   -0.210076   -0.504068
     14          1           0       -0.299366   -1.698906   -0.784251
     15          1           0        3.203251    0.028391    0.488558
     16          1           0       -0.955019    2.376223   -0.690957
     17          1           0        3.230667    2.427287    0.196074
     18          1           0        1.064101    3.581818   -0.500494
     19          1           0       -3.671129   -1.359728   -0.502803
     20          1           0       -4.354026   -0.015711    0.256486
     21          1           0       -3.564243    0.231747   -1.305256
 ---------------------------------------------------------------------

 SCF Done:  E(RB3LYP) =  -648.657046306     A.U. after   15 cycles

 The electronic state is 1-A.
 Alpha  occ. eigenvalues --  -19.25416 -19.19294 -19.17053 -19.12422 -10.35329
 Alpha  occ. eigenvalues --  -10.31800 -10.29139 -10.23164 -10.22100 -10.21855
 Alpha  occ. eigenvalues --  -10.21448 -10.21255 -10.20857  -1.17572  -1.10863
 Alpha  occ. eigenvalues --   -1.06330  -0.99797  -0.89056  -0.81491  -0.78963
 Alpha  occ. eigenvalues --   -0.75508  -0.69061  -0.66035  -0.61186  -0.60510
 Alpha  occ. eigenvalues --   -0.54997  -0.53308  -0.52846  -0.51602  -0.49886
 Alpha  occ. eigenvalues --   -0.47453  -0.45503  -0.45048  -0.43644  -0.43254
 Alpha  occ. eigenvalues --   -0.42259  -0.41788  -0.40766  -0.38820  -0.38543
 Alpha  occ. eigenvalues --   -0.37369  -0.34485  -0.30842  -0.30304  -0.28269
 Alpha  occ. eigenvalues --   -0.26668  -0.26346
 Alpha virt. eigenvalues --   -0.06012  -0.03996  -0.01851   0.03637   0.07321
 Alpha virt. eigenvalues --    0.08312   0.11326   0.12511   0.13822   0.14632
 Alpha virt. eigenvalues --    0.15532   0.16519   0.17260   0.19637   0.21702

 Mulliken charges:
               1
     1  C   -0.146224
     2  C   -0.143975
     3  C   -0.137006
     4  C   -0.102535
     5  C   -0.533907
     6  C   -0.026783
     7  C    0.296262
     8  O   -0.471804
     9  O   -0.419245
    10  O   -0.549053
    11  C    0.540840
    12  C    0.583348
    13  O   -0.514771
    14  H    0.431533
    15  H    0.179503
    16  H    0.147687
    17  H    0.147376
    18  H    0.147612
    19  H    0.201999
    20  H    0.194331
    21  H    0.174812
 Sum of Mulliken charges =   0.00000

 Dipole moment (field-independent basis, Debye):
    X=             -2.7234    Y=              4.1203    Z=             -2.5370  Tot=              5.5525
 Quadrupole moment (field-independent basis, Debye-Ang):
   XX=            -67.4371   YY=            -78.3860   ZZ=            -77.6975
   XY=             12.3352   XZ=              4.1060   YZ=             -1.8593

 ESP charges:
               1
     1  C   -0.157775
     2  C   -0.203320
     3  C   -0.077440
     4  C   -0.082847
     5  C   -0.480787
     6  C   -0.072208
     7  C    0.235733
     8  O   -0.450578
     9  O   -0.464313
    10  O   -0.456662
    11  C    0.529549
    12  C    0.711756
    13  O   -0.366144
    14  H    0.350828
    15  H    0.153205
    16  H    0.160581
    17  H    0.115723
    18  H    0.121638
    19  H    0.159914
    20  H    0.139087
    21  H    0.134060
 Sum of ESP charges =   0.00000

 1\1\GINC-NODE611\Force\RB3LYP\6-31G(d)\C9H8O4\MBDX6CW3\07-Aug-2023\0\\
 #p b3lyp/6-31g* pop=mk empiricaldispersion=gd3 int(ultrafine) force\\a
 spirin\\0,1\C,14.18117046,12.69280314,13.29586625\C,12.03691244,14.158
 53262,12.37350464\C,14.12809372,14.08422947,13.45659256\C,13.0130589,1
 4.76714969,13.08433414\C,8.85800958,12.08322763,10.79541564\C,13.26881
 051,12.06385732,12.41398454\C,12.11647987,12.73167491,12.06228614\O,14
 .33677554,9.91856396,12.59754896\O,9.56705034,12.388134,13.07022452\O,
 12.79426098,10.15916824,11.06980681\C,13.404634,10.61060071,12.1657824

 Normal termination of Gaussian 09 at Mon Aug  7 13:01:05 2023.
