 Gaussian 09, Revision D.01,
 Gaussian 09:  ES64L-G09RevD.01 24-Apr-2013

 -------------------------------------------------------------------
 #p b3lyp/6-31g* pop=mk empiricaldispersion=gd3 int(ultrafine) force
 -------------------------------------------------------------------

 -------
 aspirin
 -------
 Symbolic Z-matrix:
 Charge =  0 Multiplicity = 1

                         Standard orientation:
 ---------------------------------------------------------------------
 Center     Atomic      Atomic             Coordinates (Angstroms)
 Number     Number       Type             X           Y           Z
 ---------------------------------------------------------------------
      1          6           0       -2.462448    0.496951   -0.006612
      2          6           0        0.003495    1.785551   -0.205045
      3          6           0       -2.383531    1.922152   -0.021235
      4          6           0       -1.156971    2.554225   -0.128275
      5          6           0        3.517492   -0.565472   -0.643690
      6          6           0       -1.262210   -0.270669   -0.044523
      7          6           0       -0.011425    0.359531   -0.131676
      8          8           0       -2.314182   -2.356308   -0.018898
      9          8           0        2.642783    0.999093    0.968909
     10          8           0       -0.234053   -2.440998    0.347728
     11          6           0       -1.276742   -1.723088   -0.054311
     12          6           0        2.453969    0.175161    0.123664
     13          8           0        1.234022   -0.356438   -0.178856
     14          1           0        0.472165   -1.768231    0.335835
     15          1           0       -3.390690    0.039949   -0.018661
     16          1           0        0.881524    2.367203   -0.234164
     17          1           0       -3.212729    2.624283    0.149655
     18          1           0       -1.172731    3.714137   -0.136673
     19          1           0        4.438506   -0.504146   -0.060194
     20          1           0        3.173498   -1.592029   -0.688084
     21          1           0        3.652118   -0.050012   -1.628551
 ---------------------------------------------------------------------

 SCF Done:  E(RB3LYP) =  -648.658115455     A.U. after   15 cycles

 The electronic state is 1-A.
 Alpha  occ. eigenvalues --  -19.24551 -19.17862 -19.17426 -19.11058 -10.35564
 Alpha  occ. eigenvalues --  -10.30609 -10.29837 -10.23550 -10.22544 -10.22419
 Alpha  occ. eigenvalues --  -10.22370 -10.21974 -10.21723  -1.14660  -1.10375
 Alpha  occ. eigenvalues --   -1.06234  -0.99502  -0.88316  -0.80611  -0.78519
 Alpha  occ. eigenvalues --   -0.75899  -0.67767  -0.66238  -0.60775  -0.59701
 Alpha  occ. eigenvalues --   -0.54789  -0.52324  -0.51613  -0.50479  -0.49119
 Alpha  occ. eigenvalues --   -0.47884  -0.46232  -0.45078  -0.44007  -0.42991
 Alpha  occ. eigenvalues --   -0.42410  -0.41688  -0.40177  -0.39312  -0.38161
 Alpha  occ. eigenvalues --   -0.36277  -0.35211  -0.30592  -0.30037  -0.27335
 Alpha  occ. eigenvalues --   -0.26518  -0.25490
 Alpha virt. eigenvalues --   -0.05978  -0.04586  -0.01451   0.04615   0.05747
 Alpha virt. eigenvalues --    0.07616   0.09790   0.12349   0.13758   0.14032
 Alpha virt. eigenvalues --    0.14649   0.16378   0.17579   0.18781   0.20510

 Mulliken charges:
               1
     1  C   -0.148826
     2  C   -0.170431
     3  C   -0.132014
     4  C   -0.112525
     5  C   -0.518441
     6  C    0.019192
     7  C    0.309387
     8  O   -0.462433
     9  O   -0.406818
    10  O   -0.553421
    11  C    0.504809
    12  C    0.588639
    13  O   -0.575485
    14  H    0.432857
    15  H    0.177851
    16  H    0.162502
    17  H    0.148231
    18  H    0.152474
    19  H    0.196806
    20  H    0.193921
    21  H    0.193726
 Sum of Mulliken charges =   0.00000

 Dipole moment (field-independent basis, Debye):
    X=              2.7916    Y=              4.0934    Z=             -1.7840  Tot=              5.2661
 Quadrupole moment (field-independent basis, Debye-Ang):
   XX=            -68.4892   YY=            -79.7764   ZZ=            -75.4681
   XY=            -15.4939   XZ=             -5.2752   YZ=             -1.4238

 ESP charges:
               1
     1  C   -0.010875
     2  C   -0.282684
     3  C   -0.198766
     4  C   -0.051561
     5  C   -0.576858
     6  C   -0.189889
     7  C    0.346401
     8  O   -0.466021
     9  O   -0.488828
    10  O   -0.498198
    11  C    0.577600
    12  C    0.830909
    13  O   -0.471558
    14  H    0.391278
    15  H    0.125708
    16  H    0.171023
    17  H    0.150574
    18  H    0.130639
    19  H    0.165250
    20  H    0.171832
    21  H    0.174025
 Sum of ESP charges =   0.00000

 1\1\GINC-NODE611\Force\RB3LYP\6-31G(d)\C9H8O4\MBDX6CW3\07-Aug-2023\0\\
 #p b3lyp/6-31g* pop=mk empiricaldispersion=gd3 int(ultrafine) force\\a
 spirin\\0,1\C,14.36254382,13.23731899,11.65926099\C,11.6403079,13.7281
 239,11.29969835\C,13.91814113,14.28916335,10.80265641\C,12.56585836,14
 .5318675,10.6357789\C,8.8305521,11.40518904,13.48536372\C,13.40085506,
 12.40061998,12.29670763\C,12.02696681,12.62372971,12.11820245\O,14.954
 32734,11.0837841,13.44119787\O,9.37332988,11.77737832,11.16581202\O,12
 .99407601,10.29262304,13.44220877\C,13.78864408,11.32821798,13.1963741

 Normal termination of Gaussian 09 at Mon Aug  7 13:10:14 2023.
