 Gaussian 09, Revision D.01,
 Gaussian 09:  ES64L-G09RevD.01 24-Apr-2013

 -------------------------------------------------------------------
 #p b3lyp/6-31g* pop=mk empiricaldispersion=gd3 int(ultrafine) force
 -------------------------------------------------------------------

 -------
 aspirin
 -------
 Symbolic Z-matrix:
 Charge =  0 Multiplicity = 1

                         Standard orientation:
 ---------------------------------------------------------------------
 Center     Atomic      Atomic             Coordinates (Angstroms)
 Number     Number       Type             X           Y           Z
 ---------------------------------------------------------------------
      1          6           0        2.418098   -0.448632    0.003930
      2          6           0       -0.002240   -1.845986    0.138540
      3          6           0        2.394775   -1.824360   -0.014229
      4          6           0        1.214938   -2.508521    0.120632
      5          6           0       -3.472268    0.860051    0.045813
      6          6           0        1.215098    0.324131   -0.040971
      7          6           0        0.001918   -0.450616   -0.008137
      8          8           0        2.358272    2.313400   -0.245350
      9          8           0       -2.715701   -1.382856   -0.202830
     10          8           0        0.143989    2.453286    0.324477
     11          6           0        1.271591    1.780303   -0.109521
     12          6           0       -2.422876   -0.187439   -0.183843
     13          8           0       -1.186060    0.258750   -0.011321
     14          1           0       -0.399292    1.699066    0.487068
     15          1           0        3.403425   -0.069453   -0.031716
     16          1           0       -0.789972   -2.475678    0.145963
     17          1           0        3.312230   -2.432667    0.049112
     18          1           0        1.207263   -3.600237    0.234904
     19          1           0       -3.770476    0.962669    1.136772
     20          1           0       -3.025765    1.870528   -0.163942
     21          1           0       -4.455606    0.711551   -0.491250
 ---------------------------------------------------------------------

 SCF Done:  E(RB3LYP) =  -648.661213493     A.U. after   15 cycles

 The electronic state is 1-A.
 Alpha  occ. eigenvalues --  -19.25185 -19.18487 -19.15949 -19.13328 -10.35495
 Alpha  occ. eigenvalues --  -10.32266 -10.29780 -10.23573 -10.22832 -10.21776
 Alpha  occ. eigenvalues --  -10.21396 -10.20734 -10.20643  -1.16317  -1.09508
 Alpha  occ. eigenvalues --   -1.04314  -1.01725  -0.88615  -0.81025  -0.78551
 Alpha  occ. eigenvalues --   -0.75426  -0.69203  -0.66369  -0.60420  -0.60249
 Alpha  occ. eigenvalues --   -0.54695  -0.52803  -0.51779  -0.51317  -0.49457
 Alpha  occ. eigenvalues --   -0.47164  -0.46296  -0.44696  -0.43300  -0.42955
 Alpha  occ. eigenvalues --   -0.42157  -0.41201  -0.40992  -0.38122  -0.37683
 Alpha  occ. eigenvalues --   -0.36409  -0.35217  -0.31319  -0.29114  -0.27657
 Alpha  occ. eigenvalues --   -0.27078  -0.26777
 Alpha virt. eigenvalues --   -0.06878  -0.04364  -0.00561   0.03980   0.07050
 Alpha virt. eigenvalues --    0.08667   0.11172   0.12558   0.13581   0.14750
 Alpha virt. eigenvalues --    0.15026   0.18077   0.18668   0.19858   0.22036

 Mulliken charges:
               1
     1  C   -0.161432
     2  C   -0.127063
     3  C   -0.112081
     4  C   -0.132643
     5  C   -0.545915
     6  C   -0.020484
     7  C    0.269704
     8  O   -0.448583
     9  O   -0.445364
    10  O   -0.592439
    11  C    0.558282
    12  C    0.613089
    13  O   -0.523840
    14  H    0.440887
    15  H    0.173678
    16  H    0.187740
    17  H    0.142936
    18  H    0.148371
    19  H    0.198860
    20  H    0.177497
    21  H    0.198799
 Sum of Mulliken charges =   0.00000

 Dipole moment (field-independent basis, Debye):
    X=             -1.9910    Y=             -2.8949    Z=              0.7010  Tot=              3.5827
 Quadrupole moment (field-independent basis, Debye-Ang):
   XX=            -69.5746   YY=            -81.1881   ZZ=            -73.4742
   XY=            -17.2540   XZ=             -0.3014   YZ=             -0.5047

 ESP charges:
               1
     1  C    0.044885
     2  C   -0.269594
     3  C   -0.200622
     4  C   -0.061145
     5  C   -0.539513
     6  C   -0.359240
     7  C    0.379985
     8  O   -0.470855
     9  O   -0.502258
    10  O   -0.561351
    11  C    0.703702
    12  C    0.746001
    13  O   -0.386345
    14  H    0.406468
    15  H    0.120981
    16  H    0.207393
    17  H    0.138853
    18  H    0.125749
    19  H    0.180316
    20  H    0.126472
    21  H    0.170121
 Sum of ESP charges =   0.00000

 1\1\GINC-NODE690\Force\RB3LYP\6-31G(d)\C9H8O4\MBDX6CW3\07-Aug-2023\0\\
 #p b3lyp/6-31g* pop=mk empiricaldispersion=gd3 int(ultrafine) force\\a
 spirin\\0,1\C,13.86665583,11.16895795,13.59427333\C,11.95176125,13.193
 73131,13.8437283\C,13.63534451,11.77690744,14.80687141\C,12.7466929,12
 .81475306,14.91389394\C,9.71163929,13.80999207,10.10549307\C,13.057413
 1,11.4466095,12.44778991\C,12.06403255,12.46961474,12.64721632\O,14.06
 51679,9.80183363,11.18884087\O,9.7815454,14.21425581,12.4499619\O,12.8
 1350255,11.34649038,10.05099773\C,13.26852918,10.7231307,11.19865537\C

 Normal termination of Gaussian 09 at Mon Aug  7 12:52:38 2023.
