 Gaussian 09, Revision D.01,
 Gaussian 09:  ES64L-G09RevD.01 24-Apr-2013

 -------------------------------------------------------------------
 #p b3lyp/6-31g* pop=mk empiricaldispersion=gd3 int(ultrafine) force
 -------------------------------------------------------------------

 -------
 aspirin
 -------
 Symbolic Z-matrix:
 Charge =  0 Multiplicity = 1

                         Standard orientation:
 ---------------------------------------------------------------------
 Center     Atomic      Atomic             Coordinates (Angstroms)
 Number     Number       Type             X           Y           Z
 ---------------------------------------------------------------------
      1          6           0       -2.396700    0.596577   -0.128334
      2          6           0        0.217694    1.843791    0.123673
      3          6           0       -2.262902    2.036607   -0.047984
      4          6           0       -0.973042    2.661579    0.204157
      5          6           0        3.404562   -1.153745    0.040707
      6          6           0       -1.224489   -0.192104   -0.015823
      7          6           0        0.037824    0.463597   -0.014073
      8          8           0       -2.625286   -2.182740   -0.315886
      9          8           0        3.037956    1.102928   -0.271860
     10          8           0       -0.462996   -2.393886    0.368626
     11          6           0       -1.562658   -1.713171    0.032200
     12          6           0        2.482258    0.003292   -0.084839
     13          8           0        1.149651   -0.301921    0.016569
     14          1           0        0.244431   -1.700896    0.392889
     15          1           0       -3.374045    0.175327   -0.034444
     16          1           0        1.154979    2.366083    0.177672
     17          1           0       -3.222374    2.509541   -0.039074
     18          1           0       -0.771353    3.715283    0.404640
     19          1           0        3.286357   -1.690458   -0.899050
     20          1           0        4.375380   -0.730796    0.012396
     21          1           0        3.176728   -1.717675    0.947284
 ---------------------------------------------------------------------

 SCF Done:  E(RB3LYP) =  -648.656033990     A.U. after   15 cycles

 The electronic state is 1-A.
 Alpha  occ. eigenvalues --  -19.25528 -19.19036 -19.16873 -19.13941 -10.36047
 Alpha  occ. eigenvalues --  -10.32890 -10.29440 -10.22932 -10.22917 -10.21890
 Alpha  occ. eigenvalues --  -10.21789 -10.21723 -10.21474  -1.15649  -1.10087
 Alpha  occ. eigenvalues --   -1.04895  -1.02108  -0.86999  -0.80491  -0.77388
 Alpha  occ. eigenvalues --   -0.75494  -0.69037  -0.64575  -0.61509  -0.59915
 Alpha  occ. eigenvalues --   -0.54385  -0.52004  -0.51559  -0.51474  -0.48866
 Alpha  occ. eigenvalues --   -0.46500  -0.45784  -0.45523  -0.44228  -0.44017
 Alpha  occ. eigenvalues --   -0.43698  -0.40631  -0.39894  -0.38937  -0.37716
 Alpha  occ. eigenvalues --   -0.35167  -0.34823  -0.31508  -0.29330  -0.28082
 Alpha  occ. eigenvalues --   -0.26754  -0.25613
 Alpha virt. eigenvalues --   -0.05938  -0.04409  -0.00733   0.03742   0.06558
 Alpha virt. eigenvalues --    0.08659   0.11724   0.12611   0.13403   0.14442
 Alpha virt. eigenvalues --    0.14810   0.16246   0.17374   0.17967   0.20761

 Mulliken charges:
               1
     1  C   -0.155958
     2  C   -0.183918
     3  C   -0.141069
     4  C   -0.129756
     5  C   -0.514734
     6  C   -0.071851
     7  C    0.312552
     8  O   -0.452839
     9  O   -0.448184
    10  O   -0.591217
    11  C    0.601315
    12  C    0.605724
    13  O   -0.548779
    14  H    0.447635
    15  H    0.181142
    16  H    0.200417
    17  H    0.145059
    18  H    0.153865
    19  H    0.194445
    20  H    0.211716
    21  H    0.184434
 Sum of Mulliken charges =   0.00000

 Dipole moment (field-independent basis, Debye):
    X=              2.3544    Y=              2.3274    Z=              0.9628  Tot=              3.4477
 Quadrupole moment (field-independent basis, Debye-Ang):
   XX=            -73.9577   YY=            -78.9464   ZZ=            -73.9834
   XY=            -16.4352   XZ=             -0.5583   YZ=              0.9287

 ESP charges:
               1
     1  C   -0.007764
     2  C   -0.333190
     3  C   -0.166450
     4  C   -0.086040
     5  C   -0.558186
     6  C   -0.408477
     7  C    0.479274
     8  O   -0.482841
     9  O   -0.492759
    10  O   -0.573670
    11  C    0.763447
    12  C    0.771713
    13  O   -0.431023
    14  H    0.395462
    15  H    0.132405
    16  H    0.206592
    17  H    0.133718
    18  H    0.146315
    19  H    0.167429
    20  H    0.176547
    21  H    0.167499
 Sum of ESP charges =   0.00000

 1\1\GINC-NODE690\Force\RB3LYP\6-31G(d)\C9H8O4\MBDX6CW3\07-Aug-2023\0\\
 #p b3lyp/6-31g* pop=mk empiricaldispersion=gd3 int(ultrafine) force\\a
 spirin\\0,1\C,14.07763839,11.62340999,13.61944914\C,11.85563564,13.498
 72231,13.61591578\C,13.88737082,12.5550735,14.71208215\C,12.85470486,1
 3.57913971,14.65922832\C,9.31340814,12.91801929,10.1019299\C,13.189374
 21,11.69363856,12.51726508\C,12.05181837,12.54209161,12.61460066\O,14.
 40300465,9.81264472,11.51533484\O,9.29006994,13.84210229,12.21621394\O
 ,12.90484786,11.00122213,10.27781844\C,13.62659931,10.73292494,11.3700

 Normal termination of Gaussian 09 at Mon Aug  7 12:55:11 2023.
