 Gaussian 09, Revision D.01,
 Gaussian 09:  ES64L-G09RevD.01 24-Apr-2013

 -------------------------------------------------------------------
 #p b3lyp/6-31g* pop=mk empiricaldispersion=gd3 int(ultrafine) force
 -------------------------------------------------------------------

 -------
 aspirin
 -------
 Symbolic Z-matrix:
 Charge =  0 Multiplicity = 1

                         Standard orientation:
 ---------------------------------------------------------------------
 Center     Atomic      Atomic             Coordinates (Angstroms)
 Number     Number       Type             X           Y           Z
 ---------------------------------------------------------------------
      1          6           0       -2.264925    0.810042    0.134869
      2          6           0        0.401045    1.734375   -0.136437
      3          6           0       -2.009134    2.162383   -0.279604
      4          6           0       -0.684210    2.647358   -0.256381
      5          6           0        3.391144   -0.744399   -0.717205
      6          6           0       -1.246569   -0.125578    0.076424
      7          6           0        0.120877    0.309536    0.002848
      8          8           0       -2.759010   -1.922736    0.381036
      9          8           0        2.734862    0.609933    1.063652
     10          8           0       -0.739197   -2.378760   -0.437003
     11          6           0       -1.646205   -1.570439    0.137936
     12          6           0        2.461166   -0.320877    0.349108
     13          8           0        1.162258   -0.577781    0.014900
     14          1           0       -0.011099   -1.710477   -0.543737
     15          1           0       -3.325287    0.482032    0.322061
     16          1           0        1.409935    2.157230   -0.203171
     17          1           0       -2.860456    2.781610   -0.532670
     18          1           0       -0.489268    3.627523   -0.428265
     19          1           0        2.963557   -0.652419   -1.706984
     20          1           0        4.298105   -0.204544   -0.444529
     21          1           0        3.684067   -1.740617   -0.512734
 ---------------------------------------------------------------------

 SCF Done:  E(RB3LYP) =  -648.638707481     A.U. after   15 cycles

 The electronic state is 1-A.
 Alpha  occ. eigenvalues --  -19.23907 -19.18353 -19.17349 -19.12684 -10.35552
 Alpha  occ. eigenvalues --  -10.31371 -10.29674 -10.22640 -10.22243 -10.21905
 Alpha  occ. eigenvalues --  -10.21886 -10.21365 -10.21310  -1.15482  -1.10078
 Alpha  occ. eigenvalues --   -1.06234  -1.01860  -0.86972  -0.80712  -0.77902
 Alpha  occ. eigenvalues --   -0.75489  -0.68633  -0.64911  -0.59689  -0.59260
 Alpha  occ. eigenvalues --   -0.54662  -0.52794  -0.52029  -0.51269  -0.49098
 Alpha  occ. eigenvalues --   -0.47336  -0.45516  -0.44950  -0.44359  -0.43265
 Alpha  occ. eigenvalues --   -0.42215  -0.41948  -0.40693  -0.38682  -0.37503
 Alpha  occ. eigenvalues --   -0.35814  -0.34861  -0.31016  -0.30330  -0.27446
 Alpha  occ. eigenvalues --   -0.26641  -0.24770
 Alpha virt. eigenvalues --   -0.06625  -0.04642  -0.02197   0.04573   0.07770
 Alpha virt. eigenvalues --    0.08902   0.11565   0.12090   0.13216   0.14257
 Alpha virt. eigenvalues --    0.14673   0.16413   0.17865   0.19677   0.21715

 Mulliken charges:
               1
     1  C   -0.172894
     2  C   -0.164326
     3  C   -0.139445
     4  C   -0.114173
     5  C   -0.533367
     6  C   -0.025916
     7  C    0.290534
     8  O   -0.447122
     9  O   -0.396935
    10  O   -0.576992
    11  C    0.568376
    12  C    0.579615
    13  O   -0.549733
    14  H    0.436302
    15  H    0.181956
    16  H    0.166840
    17  H    0.148162
    18  H    0.145907
    19  H    0.201896
    20  H    0.204708
    21  H    0.196608
 Sum of Mulliken charges =   0.00000

 Dipole moment (field-independent basis, Debye):
    X=              3.5916    Y=              2.9119    Z=             -2.1904  Tot=              5.1163
 Quadrupole moment (field-independent basis, Debye-Ang):
   XX=            -71.7536   YY=            -76.1428   ZZ=            -75.4532
   XY=            -15.0334   XZ=             -3.6504   YZ=             -2.4785

 ESP charges:
               1
     1  C   -0.008615
     2  C   -0.324182
     3  C   -0.185930
     4  C   -0.051927
     5  C   -0.512517
     6  C   -0.284710
     7  C    0.393317
     8  O   -0.465193
     9  O   -0.461625
    10  O   -0.522180
    11  C    0.657399
    12  C    0.738088
    13  O   -0.449974
    14  H    0.379058
    15  H    0.122965
    16  H    0.208936
    17  H    0.142012
    18  H    0.135791
    19  H    0.187657
    20  H    0.151979
    21  H    0.149655
 Sum of ESP charges =   0.00000

 1\1\GINC-NODE690\Force\RB3LYP\6-31G(d)\C9H8O4\MBDX6CW3\07-Aug-2023\0\\
 #p b3lyp/6-31g* pop=mk empiricaldispersion=gd3 int(ultrafine) force\\a
 spirin\\0,1\C,14.26365614,12.99060106,11.41277075\C,11.50150537,13.588
 96732,11.19396806\C,13.83865476,14.22680259,10.81508994\C,12.46394396,
 14.43441272,10.57377696\C,8.83834422,11.91022277,13.54166746\C,13.3690
 6075,12.25739121,12.17300177\C,11.95762396,12.49121785,12.03952312\O,1
 5.09538531,10.89539289,13.05323601\O,9.33466494,11.7314887,11.27052426
 \O,13.1417799,10.93303561,14.12038207\C,13.94561887,11.20988011,13.079

 Normal termination of Gaussian 09 at Mon Aug  7 13:10:14 2023.
