 Gaussian 09, Revision D.01,
 Gaussian 09:  ES64L-G09RevD.01 24-Apr-2013

 -------------------------------------------------------------------
 #p b3lyp/6-31g* pop=mk empiricaldispersion=gd3 int(ultrafine) force
 -------------------------------------------------------------------

 -------
 aspirin
 -------
 Symbolic Z-matrix:
 Charge =  0 Multiplicity = 1

                         Standard orientation:
 ---------------------------------------------------------------------
 Center     Atomic      Atomic             Coordinates (Angstroms)
 Number     Number       Type             X           Y           Z
 ---------------------------------------------------------------------
      1          6           0        2.423438   -0.183414    0.191481
      2          6           0        0.229978   -1.909548   -0.317194
      3          6           0        2.572818   -1.595336    0.087728
      4          6           0        1.479960   -2.410686   -0.145682
      5          6           0       -3.455746    0.593978   -0.159576
      6          6           0        1.157257    0.335674   -0.027508
      7          6           0        0.038408   -0.504826   -0.259829
      8          8           0        2.013990    2.573959    0.194051
      9          8           0       -2.468955   -1.132197    0.980245
     10          8           0       -0.151504    2.358175   -0.099680
     11          6           0        1.039923    1.856476    0.070187
     12          6           0       -2.428320   -0.526323   -0.020588
     13          8           0       -1.209741   -0.092685   -0.530693
     14          1           0       -0.572899    1.467239   -0.409244
     15          1           0        3.259954    0.430733    0.499391
     16          1           0       -0.636851   -2.586273   -0.508179
     17          1           0        3.562559   -2.056632    0.288539
     18          1           0        1.609731   -3.495365   -0.208598
     19          1           0       -4.409326    0.386037    0.402428
     20          1           0       -2.931806    1.455312    0.303944
     21          1           0       -3.697979    0.804955   -1.233773
 ---------------------------------------------------------------------

 SCF Done:  E(RB3LYP) =  -648.642260208     A.U. after   15 cycles

 The electronic state is 1-A.
 Alpha  occ. eigenvalues --  -19.24107 -19.19374 -19.18121 -19.11929 -10.36012
 Alpha  occ. eigenvalues --  -10.31395 -10.28966 -10.23302 -10.22715 -10.21514
 Alpha  occ. eigenvalues --  -10.21443 -10.21072 -10.21010  -1.16326  -1.11236
 Alpha  occ. eigenvalues --   -1.08346  -1.00514  -0.88005  -0.80144  -0.78345
 Alpha  occ. eigenvalues --   -0.74871  -0.68581  -0.64979  -0.60151  -0.59467
 Alpha  occ. eigenvalues --   -0.54435  -0.52383  -0.51974  -0.51578  -0.48962
 Alpha  occ. eigenvalues --   -0.47863  -0.45794  -0.45161  -0.43641  -0.43424
 Alpha  occ. eigenvalues --   -0.43192  -0.40830  -0.40251  -0.39498  -0.38352
 Alpha  occ. eigenvalues --   -0.36383  -0.34264  -0.31005  -0.30624  -0.27534
 Alpha  occ. eigenvalues --   -0.26403  -0.25534
 Alpha virt. eigenvalues --   -0.06778  -0.04392  -0.02481   0.05825   0.06885
 Alpha virt. eigenvalues --    0.08701   0.10633   0.12183   0.13328   0.13664
 Alpha virt. eigenvalues --    0.15080   0.16025   0.17677   0.18872   0.21986

 Mulliken charges:
               1
     1  C   -0.165691
     2  C   -0.156658
     3  C   -0.144834
     4  C   -0.115639
     5  C   -0.508395
     6  C   -0.009840
     7  C    0.305740
     8  O   -0.469522
     9  O   -0.350079
    10  O   -0.568324
    11  C    0.555320
    12  C    0.540760
    13  O   -0.559714
    14  H    0.444776
    15  H    0.185594
    16  H    0.154402
    17  H    0.141854
    18  H    0.143072
    19  H    0.193963
    20  H    0.211243
    21  H    0.171972
 Sum of Mulliken charges =   0.00000

 Dipole moment (field-independent basis, Debye):
    X=             -2.5897    Y=             -3.8254    Z=             -1.4913  Tot=              4.8543
 Quadrupole moment (field-independent basis, Debye-Ang):
   XX=            -65.2406   YY=            -82.1054   ZZ=            -75.5547
   XY=            -11.8380   XZ=              4.3582   YZ=              2.0082

 ESP charges:
               1
     1  C   -0.003185
     2  C   -0.315369
     3  C   -0.192376
     4  C   -0.009421
     5  C   -0.451438
     6  C   -0.345307
     7  C    0.448592
     8  O   -0.507506
     9  O   -0.415310
    10  O   -0.505729
    11  C    0.729548
    12  C    0.656951
    13  O   -0.405756
    14  H    0.316750
    15  H    0.132134
    16  H    0.166331
    17  H    0.129422
    18  H    0.114195
    19  H    0.150551
    20  H    0.191068
    21  H    0.115854
 Sum of ESP charges =   0.00000

 1\1\GINC-NODE690\Force\RB3LYP\6-31G(d)\C9H8O4\MBDX6CW3\07-Aug-2023\0\\
 #p b3lyp/6-31g* pop=mk empiricaldispersion=gd3 int(ultrafine) force\\a
 spirin\\0,1\C,14.32448745,12.55602837,11.22806787\C,11.61782146,13.001
 45507,10.50342202\C,13.94460678,12.97856808,9.92278814\C,12.61412263,1
 3.17191482,9.59714472\C,9.11536217,11.6471827,13.9357233\C,13.31488967
 ,12.42442369,12.16828823\C,11.95135236,12.61719704,11.82793617\O,14.93
 723273,11.90127015,13.86749864\O,9.52309132,11.09550118,11.74893737\O,
 12.82146215,11.82946324,14.45107818\C,13.76307845,11.99082971,13.56373

 Normal termination of Gaussian 09 at Mon Aug  7 13:15:25 2023.
