 Gaussian 09, Revision D.01,
 Gaussian 09:  ES64L-G09RevD.01 24-Apr-2013

 -------------------------------------------------------------------
 #p b3lyp/6-31g* pop=mk empiricaldispersion=gd3 int(ultrafine) force
 -------------------------------------------------------------------

 -------
 aspirin
 -------
 Symbolic Z-matrix:
 Charge =  0 Multiplicity = 1

                         Standard orientation:
 ---------------------------------------------------------------------
 Center     Atomic      Atomic             Coordinates (Angstroms)
 Number     Number       Type             X           Y           Z
 ---------------------------------------------------------------------
      1          6           0       -2.405773    0.466202    0.240803
      2          6           0       -0.003481    1.818636   -0.098337
      3          6           0       -2.399936    1.782944   -0.143726
      4          6           0       -1.195921    2.551265   -0.122431
      5          6           0        3.408393   -0.962720    0.033650
      6          6           0       -1.155243   -0.275178    0.163274
      7          6           0        0.026489    0.409418    0.007694
      8          8           0       -2.260686   -2.290853    0.332107
      9          8           0        2.729795    1.371381    0.278171
     10          8           0       -0.278960   -2.414805   -0.481068
     11          6           0       -1.282867   -1.703721    0.023873
     12          6           0        2.463629    0.226880   -0.008184
     13          8           0        1.193546   -0.245524   -0.084221
     14          1           0        0.367500   -1.691947   -0.566953
     15          1           0       -3.395253   -0.104504    0.313825
     16          1           0        0.810311    2.347158   -0.298090
     17          1           0       -3.325299    2.239772   -0.336895
     18          1           0       -1.151879    3.609436   -0.341202
     19          1           0        4.420654   -0.678639   -0.315693
     20          1           0        3.457006   -1.169560    1.148750
     21          1           0        3.015664   -1.795655   -0.543361
 ---------------------------------------------------------------------

 SCF Done:  E(RB3LYP) =  -648.654743998     A.U. after   15 cycles

 The electronic state is 1-A.
 Alpha  occ. eigenvalues --  -19.24933 -19.17916 -19.17296 -19.11313 -10.36099
 Alpha  occ. eigenvalues --  -10.30290 -10.28588 -10.23083 -10.22237 -10.22042
 Alpha  occ. eigenvalues --  -10.21907 -10.20669 -10.20158  -1.16619  -1.10903
 Alpha  occ. eigenvalues --   -1.06420  -1.01530  -0.88216  -0.81266  -0.78210
 Alpha  occ. eigenvalues --   -0.75600  -0.69211  -0.65823  -0.60377  -0.59680
 Alpha  occ. eigenvalues --   -0.55089  -0.52581  -0.52097  -0.51691  -0.49478
 Alpha  occ. eigenvalues --   -0.47073  -0.45525  -0.44921  -0.43938  -0.43463
 Alpha  occ. eigenvalues --   -0.42847  -0.41424  -0.41021  -0.38767  -0.37454
 Alpha  occ. eigenvalues --   -0.36087  -0.35818  -0.30760  -0.30297  -0.26881
 Alpha  occ. eigenvalues --   -0.26040  -0.25896
 Alpha virt. eigenvalues --   -0.06081  -0.04085  -0.00486   0.06087   0.07546
 Alpha virt. eigenvalues --    0.08509   0.11781   0.12229   0.13726   0.14787
 Alpha virt. eigenvalues --    0.14925   0.17567   0.17848   0.19946   0.22455

 Mulliken charges:
               1
     1  C   -0.153443
     2  C   -0.152663
     3  C   -0.131536
     4  C   -0.122038
     5  C   -0.517981
     6  C   -0.010025
     7  C    0.306532
     8  O   -0.448153
     9  O   -0.424586
    10  O   -0.577983
    11  C    0.516512
    12  C    0.584421
    13  O   -0.535962
    14  H    0.429156
    15  H    0.182520
    16  H    0.169474
    17  H    0.142830
    18  H    0.154155
    19  H    0.194937
    20  H    0.203911
    21  H    0.189922
 Sum of Mulliken charges =   0.00000

 Dipole moment (field-independent basis, Debye):
    X=              2.6618    Y=              2.8604    Z=             -1.0468  Tot=              4.0451
 Quadrupole moment (field-independent basis, Debye-Ang):
   XX=            -68.8837   YY=            -81.7546   ZZ=            -73.2940
   XY=            -16.8538   XZ=              0.3924   YZ=             -1.7949

 ESP charges:
               1
     1  C    0.004862
     2  C   -0.262433
     3  C   -0.212221
     4  C   -0.045559
     5  C   -0.664994
     6  C   -0.308916
     7  C    0.355964
     8  O   -0.499214
     9  O   -0.455819
    10  O   -0.507311
    11  C    0.715206
    12  C    0.705047
    13  O   -0.287885
    14  H    0.286784
    15  H    0.119030
    16  H    0.161597
    17  H    0.147042
    18  H    0.134945
    19  H    0.190666
    20  H    0.210715
    21  H    0.212494
 Sum of ESP charges =   0.00000

 1\1\GINC-NODE690\Force\RB3LYP\6-31G(d)\C9H8O4\MBDX6CW3\07-Aug-2023\0\\
 #p b3lyp/6-31g* pop=mk empiricaldispersion=gd3 int(ultrafine) force\\a
 spirin\\0,1\C,14.30122018,12.72823453,11.18830442\C,11.59697533,13.211
 34925,10.77749729\C,13.89630675,13.68612766,10.29376984\C,12.52435923,
 13.80740166,9.91498888\C,9.14444566,11.12447381,13.78154278\C,13.31575
 871,12.20420837,12.12304592\C,11.98047638,12.44143486,11.89918995\O,14
 .96307254,11.30524039,13.46157908\O,9.13154066,12.15810776,11.56800508
 \O,13.06358337,11.56914115,14.42394853\C,13.84328842,11.66540265,13.35

 Normal termination of Gaussian 09 at Mon Aug  7 13:12:51 2023.
