 Gaussian 09, Revision D.01,
 Gaussian 09:  ES64L-G09RevD.01 24-Apr-2013

 -------------------------------------------------------------------
 #p b3lyp/6-31g* pop=mk empiricaldispersion=gd3 int(ultrafine) force
 -------------------------------------------------------------------

 -------
 aspirin
 -------
 Symbolic Z-matrix:
 Charge =  0 Multiplicity = 1

                         Standard orientation:
 ---------------------------------------------------------------------
 Center     Atomic      Atomic             Coordinates (Angstroms)
 Number     Number       Type             X           Y           Z
 ---------------------------------------------------------------------
      1          6           0        2.393668   -0.261436    0.118830
      2          6           0        0.214847   -1.880298   -0.386698
      3          6           0        2.503113   -1.691884    0.129747
      4          6           0        1.423784   -2.537672   -0.129550
      5          6           0       -3.391572    0.709704   -0.015620
      6          6           0        1.163419    0.339168   -0.135846
      7          6           0        0.022188   -0.514505   -0.271816
      8          8           0        2.077026    2.472295    0.424398
      9          8           0       -2.625001   -1.349857    0.744658
     10          8           0       -0.004257    2.467397   -0.304305
     11          6           0        1.091295    1.855281    0.065073
     12          6           0       -2.462040   -0.428445   -0.022247
     13          8           0       -1.209692    0.122315   -0.331433
     14          1           0       -0.476614    1.705991   -0.593922
     15          1           0        3.240623    0.333962    0.481552
     16          1           0       -0.735348   -2.391268   -0.495925
     17          1           0        3.517705   -2.192920    0.278995
     18          1           0        1.582464   -3.627922   -0.045573
     19          1           0       -2.930096    1.551627   -0.465275
     20          1           0       -4.294557    0.442544   -0.539209
     21          1           0       -3.560993    0.941299    1.001578
 ---------------------------------------------------------------------

 SCF Done:  E(RB3LYP) =  -648.653570212     A.U. after   15 cycles

 The electronic state is 1-A.
 Alpha  occ. eigenvalues --  -19.24350 -19.19520 -19.17803 -19.12299 -10.35669
 Alpha  occ. eigenvalues --  -10.31932 -10.28624 -10.22682 -10.22300 -10.21690
 Alpha  occ. eigenvalues --  -10.21580 -10.21451 -10.20964  -1.14317  -1.12310
 Alpha  occ. eigenvalues --   -1.06270  -1.01359  -0.87742  -0.80840  -0.77953
 Alpha  occ. eigenvalues --   -0.75346  -0.67571  -0.65232  -0.61305  -0.58898
 Alpha  occ. eigenvalues --   -0.55060  -0.52555  -0.51757  -0.51033  -0.48720
 Alpha  occ. eigenvalues --   -0.47265  -0.45707  -0.44865  -0.44139  -0.43783
 Alpha  occ. eigenvalues --   -0.42858  -0.41500  -0.41248  -0.38735  -0.37067
 Alpha  occ. eigenvalues --   -0.36234  -0.35430  -0.31313  -0.30444  -0.27481
 Alpha  occ. eigenvalues --   -0.26515  -0.25657
 Alpha virt. eigenvalues --   -0.06677  -0.05295  -0.01427   0.04889   0.06953
 Alpha virt. eigenvalues --    0.09194   0.11371   0.12883   0.13744   0.14822
 Alpha virt. eigenvalues --    0.15400   0.17132   0.17649   0.19623   0.21512

 Mulliken charges:
               1
     1  C   -0.155588
     2  C   -0.175653
     3  C   -0.145974
     4  C   -0.111762
     5  C   -0.531853
     6  C   -0.067425
     7  C    0.352079
     8  O   -0.466319
     9  O   -0.397149
    10  O   -0.548428
    11  C    0.548301
    12  C    0.585668
    13  O   -0.574239
    14  H    0.446546
    15  H    0.186704
    16  H    0.158522
    17  H    0.137667
    18  H    0.162164
    19  H    0.187035
    20  H    0.190340
    21  H    0.219365
 Sum of Mulliken charges =   0.00000

 Dipole moment (field-independent basis, Debye):
    X=             -2.3639    Y=             -3.1063    Z=             -1.6216  Tot=              4.2270
 Quadrupole moment (field-independent basis, Debye-Ang):
   XX=            -67.5853   YY=            -81.5893   ZZ=            -74.4770
   XY=            -14.4595   XZ=              2.9873   YZ=              0.5099

 ESP charges:
               1
     1  C   -0.061559
     2  C   -0.209258
     3  C   -0.183023
     4  C   -0.034660
     5  C   -0.577262
     6  C   -0.193709
     7  C    0.251108
     8  O   -0.489074
     9  O   -0.433186
    10  O   -0.482430
    11  C    0.654776
    12  C    0.685227
    13  O   -0.304150
    14  H    0.326527
    15  H    0.137925
    16  H    0.117458
    17  H    0.126926
    18  H    0.134389
    19  H    0.158706
    20  H    0.159776
    21  H    0.215495
 Sum of ESP charges =   0.00000

 1\1\GINC-NODE690\Force\RB3LYP\6-31G(d)\C9H8O4\MBDX6CW3\07-Aug-2023\0\\
 #p b3lyp/6-31g* pop=mk empiricaldispersion=gd3 int(ultrafine) force\\a
 spirin\\0,1\C,14.33429122,13.11052799,11.77758455\C,11.74276829,14.050
 25482,11.62120461\C,14.01178598,14.30482507,11.05100155\C,12.714324,14
 .81056452,10.95953822\C,9.10797894,10.70100784,12.92216301\C,13.325647
 12,12.38913298,12.41108537\C,11.97508574,12.82178998,12.2150135\O,14.8
 6997843,10.6340301,12.89423823\O,9.27282035,12.22647667,11.17481709\O,
 12.83875465,10.3957212,13.7189281\C,13.72334123,11.03011131,12.9933822

 Normal termination of Gaussian 09 at Mon Aug  7 13:07:42 2023.
