 Gaussian 09, Revision D.01,
 Gaussian 09:  ES64L-G09RevD.01 24-Apr-2013

 -------------------------------------------------------------------
 #p b3lyp/6-31g* pop=mk empiricaldispersion=gd3 int(ultrafine) force
 -------------------------------------------------------------------

 -------
 aspirin
 -------
 Symbolic Z-matrix:
 Charge =  0 Multiplicity = 1

                         Standard orientation:
 ---------------------------------------------------------------------
 Center     Atomic      Atomic             Coordinates (Angstroms)
 Number     Number       Type             X           Y           Z
 ---------------------------------------------------------------------
      1          6           0       -2.354840   -0.468495    0.218141
      2          6           0       -0.014058   -1.820527   -0.339642
      3          6           0       -2.440547   -1.863207    0.063463
      4          6           0       -1.232028   -2.579269   -0.278273
      5          6           0        3.456824    0.691080   -0.274568
      6          6           0       -1.203012    0.301086    0.026437
      7          6           0       -0.027307   -0.444991   -0.231547
      8          8           0       -2.285868    2.414674    0.211359
      9          8           0        2.657629   -1.101652    0.947210
     10          8           0       -0.146336    2.474474   -0.192621
     11          6           0       -1.247582    1.777379    0.117378
     12          6           0        2.405566   -0.274410    0.079115
     13          8           0        1.188953    0.212453   -0.281782
     14          1           0        0.498607    1.658354   -0.211461
     15          1           0       -3.279194    0.119680    0.470937
     16          1           0        0.860295   -2.415982   -0.543820
     17          1           0       -3.392572   -2.361954    0.132045
     18          1           0       -1.244887   -3.631056   -0.365919
     19          1           0        3.350824    0.813398   -1.388754
     20          1           0        3.373680    1.612472    0.199711
     21          1           0        4.460133    0.293634   -0.049089
 ---------------------------------------------------------------------

 SCF Done:  E(RB3LYP) =  -648.659129273     A.U. after   15 cycles

 The electronic state is 1-A.
 Alpha  occ. eigenvalues --  -19.25668 -19.18423 -19.17300 -19.12025 -10.35870
 Alpha  occ. eigenvalues --  -10.31543 -10.29612 -10.23431 -10.23074 -10.22411
 Alpha  occ. eigenvalues --  -10.22380 -10.22143 -10.21453  -1.16028  -1.09361
 Alpha  occ. eigenvalues --   -1.05764  -0.99642  -0.88471  -0.81066  -0.78645
 Alpha  occ. eigenvalues --   -0.75923  -0.69082  -0.66433  -0.60082  -0.59690
 Alpha  occ. eigenvalues --   -0.55157  -0.52939  -0.52513  -0.51312  -0.49377
 Alpha  occ. eigenvalues --   -0.47665  -0.45559  -0.45036  -0.43427  -0.42928
 Alpha  occ. eigenvalues --   -0.42800  -0.42178  -0.41414  -0.38535  -0.37454
 Alpha  occ. eigenvalues --   -0.36612  -0.35298  -0.30246  -0.29920  -0.27469
 Alpha  occ. eigenvalues --   -0.26718  -0.26410
 Alpha virt. eigenvalues --   -0.06781  -0.05154  -0.01878   0.04059   0.06769
 Alpha virt. eigenvalues --    0.08580   0.11390   0.12553   0.13687   0.15026
 Alpha virt. eigenvalues --    0.15606   0.15875   0.16974   0.18083   0.21506

 Mulliken charges:
               1
     1  C   -0.188605
     2  C   -0.161226
     3  C   -0.122508
     4  C   -0.137008
     5  C   -0.524943
     6  C    0.041448
     7  C    0.303279
     8  O   -0.462971
     9  O   -0.416467
    10  O   -0.577194
    11  C    0.539267
    12  C    0.590259
    13  O   -0.559896
    14  H    0.440570
    15  H    0.179852
    16  H    0.165778
    17  H    0.154715
    18  H    0.157190
    19  H    0.166133
    20  H    0.216452
    21  H    0.195875
 Sum of Mulliken charges =   0.00000

 Dipole moment (field-independent basis, Debye):
    X=              2.3692    Y=             -4.0060    Z=             -1.5489  Tot=              4.9051
 Quadrupole moment (field-independent basis, Debye-Ang):
   XX=            -69.2027   YY=            -80.5690   ZZ=            -75.5664
   XY=             15.7673   XZ=             -4.3685   YZ=              3.2889

 ESP charges:
               1
     1  C   -0.050689
     2  C   -0.280671
     3  C   -0.160130
     4  C   -0.067234
     5  C   -0.410927
     6  C   -0.166590
     7  C    0.280621
     8  O   -0.475736
     9  O   -0.452696
    10  O   -0.474219
    11  C    0.628904
    12  C    0.679121
    13  O   -0.292035
    14  H    0.283207
    15  H    0.110405
    16  H    0.170642
    17  H    0.147803
    18  H    0.147264
    19  H    0.085100
    20  H    0.173096
    21  H    0.124764
 Sum of ESP charges =   0.00000

 1\1\GINC-NODE692\Force\RB3LYP\6-31G(d)\C9H8O4\MBDX6CW3\07-Aug-2023\0\\
 #p b3lyp/6-31g* pop=mk empiricaldispersion=gd3 int(ultrafine) force\\a
 spirin\\0,1\C,13.27754498,10.47818542,13.38069916\C,12.16934443,12.932
 15275,13.98758054\C,13.25924397,10.85695624,14.73446727\C,12.72760034,
 12.16065049,15.06277323\C,10.43470144,14.8990047,10.59908032\C,12.8636
 6224,11.27474189,12.30836034\C,12.28008866,12.51088977,12.67829299\O,1
 3.6397326,9.80850518,10.59900641\O,9.6778661,14.01125073,12.59518504\O
 ,12.72059917,11.66178226,9.91714776\C,13.02030563,10.81456661,10.91071

 Normal termination of Gaussian 09 at Mon Aug  7 12:49:17 2023.
