 Gaussian 09, Revision D.01,
 Gaussian 09:  ES64L-G09RevD.01 24-Apr-2013

 -------------------------------------------------------------------
 #p b3lyp/6-31g* pop=mk empiricaldispersion=gd3 int(ultrafine) force
 -------------------------------------------------------------------

 -------
 aspirin
 -------
 Symbolic Z-matrix:
 Charge =  0 Multiplicity = 1

                         Standard orientation:
 ---------------------------------------------------------------------
 Center     Atomic      Atomic             Coordinates (Angstroms)
 Number     Number       Type             X           Y           Z
 ---------------------------------------------------------------------
      1          6           0       -2.437606   -0.331488   -0.094867
      2          6           0       -0.098341   -1.910689    0.037169
      3          6           0       -2.534825   -1.735585    0.003956
      4          6           0       -1.388215   -2.476142    0.106971
      5          6           0        3.300388    0.793361    0.364319
      6          6           0       -1.169102    0.310191   -0.070763
      7          6           0        0.007798   -0.497075   -0.066963
      8          8           0       -2.131957    2.407818    0.311757
      9          8           0        2.778728   -1.426183   -0.305184
     10          8           0        0.024702    2.467326   -0.413612
     11          6           0       -1.177458    1.813152   -0.037299
     12          6           0        2.403302   -0.280257   -0.049678
     13          8           0        1.178382    0.198994    0.058224
     14          1           0        0.665039    1.773512   -0.178119
     15          1           0       -3.420278    0.249580   -0.113464
     16          1           0        0.712888   -2.564203    0.107550
     17          1           0       -3.465692   -2.219142    0.105507
     18          1           0       -1.320447   -3.554581    0.364394
     19          1           0        3.394919    0.810455    1.497312
     20          1           0        4.267644    0.481871   -0.133771
     21          1           0        2.931450    1.726053   -0.015953
 ---------------------------------------------------------------------

 SCF Done:  E(RB3LYP) =  -648.668464029     A.U. after   15 cycles

 The electronic state is 1-A.
 Alpha  occ. eigenvalues --  -19.25932 -19.17185 -19.16664 -19.14206 -10.35142
 Alpha  occ. eigenvalues --  -10.32285 -10.29523 -10.23316 -10.22786 -10.21892
 Alpha  occ. eigenvalues --  -10.21842 -10.21625 -10.21029  -1.17375  -1.08999
 Alpha  occ. eigenvalues --   -1.05050  -1.01912  -0.88306  -0.82103  -0.78005
 Alpha  occ. eigenvalues --   -0.75679  -0.69207  -0.65293  -0.59987  -0.59490
 Alpha  occ. eigenvalues --   -0.54431  -0.52711  -0.52416  -0.51754  -0.49255
 Alpha  occ. eigenvalues --   -0.46743  -0.45572  -0.45143  -0.44219  -0.43461
 Alpha  occ. eigenvalues --   -0.42606  -0.41384  -0.40015  -0.38467  -0.38240
 Alpha  occ. eigenvalues --   -0.35827  -0.35622  -0.31004  -0.29942  -0.28311
 Alpha  occ. eigenvalues --   -0.27076  -0.26597
 Alpha virt. eigenvalues --   -0.05945  -0.04509  -0.00487   0.04360   0.07265
 Alpha virt. eigenvalues --    0.07774   0.12108   0.12504   0.13513   0.14218
 Alpha virt. eigenvalues --    0.14407   0.17238   0.18931   0.19099   0.21269

 Mulliken charges:
               1
     1  C   -0.169602
     2  C   -0.156025
     3  C   -0.123230
     4  C   -0.118353
     5  C   -0.534758
     6  C   -0.018137
     7  C    0.301394
     8  O   -0.408326
     9  O   -0.455805
    10  O   -0.638994
    11  C    0.538399
    12  C    0.613996
    13  O   -0.515386
    14  H    0.446545
    15  H    0.179113
    16  H    0.186023
    17  H    0.148865
    18  H    0.147820
    19  H    0.198104
    20  H    0.189386
    21  H    0.188970
 Sum of Mulliken charges =   0.00000

 Dipole moment (field-independent basis, Debye):
    X=              1.1924    Y=             -2.9174    Z=              0.8712  Tot=              3.2699
 Quadrupole moment (field-independent basis, Debye-Ang):
   XX=            -69.4447   YY=            -82.5267   ZZ=            -73.9364
   XY=             14.6543   XZ=              3.3679   YZ=             -1.6815

 ESP charges:
               1
     1  C   -0.058132
     2  C   -0.282539
     3  C   -0.137194
     4  C   -0.061946
     5  C   -0.619731
     6  C   -0.260282
     7  C    0.288428
     8  O   -0.469949
     9  O   -0.503587
    10  O   -0.559638
    11  C    0.732079
    12  C    0.779773
    13  O   -0.299726
    14  H    0.311405
    15  H    0.138475
    16  H    0.199327
    17  H    0.135626
    18  H    0.123312
    19  H    0.189376
    20  H    0.158118
    21  H    0.196806
 Sum of ESP charges =   0.00000

 1\1\GINC-NODE611\Force\RB3LYP\6-31G(d)\C9H8O4\MBDX6CW3\07-Aug-2023\0\\
 #p b3lyp/6-31g* pop=mk empiricaldispersion=gd3 int(ultrafine) force\\a
 spirin\\0,1\C,14.39757586,12.55446672,13.15124393\C,11.8991363,13.8693
 1658,13.26276779\C,14.23407435,13.69848013,13.96069169\C,13.00366282,1
 4.29439902,14.02939081\C,9.03527141,11.4471364,11.04881287\C,13.298068
 05,12.01500654,12.42909551\C,12.05731273,12.72010326,12.44136453\O,14.
 43222404,10.01135945,12.01371789\O,9.36478615,13.68092537,11.78931713\
 O,12.62036443,10.37387609,10.68457365\C,13.53841662,10.71592331,11.711

 Normal termination of Gaussian 09 at Mon Aug  7 12:59:51 2023.
