 Gaussian 09, Revision D.01,
 Gaussian 09:  ES64L-G09RevD.01 24-Apr-2013

 -------------------------------------------------------------------
 #p b3lyp/6-31g* pop=mk empiricaldispersion=gd3 int(ultrafine) force
 -------------------------------------------------------------------

 -------
 aspirin
 -------
 Symbolic Z-matrix:
 Charge =  0 Multiplicity = 1

                         Standard orientation:
 ---------------------------------------------------------------------
 Center     Atomic      Atomic             Coordinates (Angstroms)
 Number     Number       Type             X           Y           Z
 ---------------------------------------------------------------------
      1          6           0        2.401193    0.451243   -0.100405
      2          6           0       -0.052772    1.839160   -0.152344
      3          6           0        2.337082    1.879306   -0.190085
      4          6           0        1.125481    2.542302   -0.083029
      5          6           0       -3.534639   -0.748646   -0.409652
      6          6           0        1.217930   -0.259093    0.032067
      7          6           0       -0.059869    0.413520   -0.112086
      8          8           0        2.323533   -2.271356    0.530375
      9          8           0       -2.656541    1.019880    0.936189
     10          8           0        0.383648   -2.384623   -0.342719
     11          6           0        1.314184   -1.689224    0.208952
     12          6           0       -2.425734    0.105709    0.119051
     13          8           0       -1.196309   -0.313835   -0.220845
     14          1           0       -0.070910   -1.620082   -0.758650
     15          1           0        3.428453    0.111810   -0.121042
     16          1           0       -0.983263    2.452870   -0.221552
     17          1           0        3.171005    2.496163   -0.219526
     18          1           0        1.150103    3.619975   -0.155228
     19          1           0       -4.305015    0.036212   -0.427369
     20          1           0       -3.346576   -1.127496   -1.407863
     21          1           0       -3.815581   -1.575641    0.212420
 ---------------------------------------------------------------------

 SCF Done:  E(RB3LYP) =  -648.645683455     A.U. after   15 cycles

 The electronic state is 1-A.
 Alpha  occ. eigenvalues --  -19.25481 -19.18957 -19.16517 -19.11310 -10.35788
 Alpha  occ. eigenvalues --  -10.30581 -10.29800 -10.22957 -10.22087 -10.22064
 Alpha  occ. eigenvalues --  -10.21781 -10.21208 -10.20531  -1.16606  -1.12841
 Alpha  occ. eigenvalues --   -1.04118  -1.00637  -0.88167  -0.81027  -0.78835
 Alpha  occ. eigenvalues --   -0.75744  -0.69674  -0.66150  -0.60549  -0.59707
 Alpha  occ. eigenvalues --   -0.55907  -0.52698  -0.52633  -0.51364  -0.49085
 Alpha  occ. eigenvalues --   -0.47055  -0.46510  -0.45518  -0.44034  -0.43281
 Alpha  occ. eigenvalues --   -0.42443  -0.41343  -0.40728  -0.38127  -0.38016
 Alpha  occ. eigenvalues --   -0.36180  -0.34547  -0.30672  -0.29643  -0.27788
 Alpha  occ. eigenvalues --   -0.25931  -0.25680
 Alpha virt. eigenvalues --   -0.06002  -0.04504  -0.01428   0.04738   0.07162
 Alpha virt. eigenvalues --    0.09066   0.12002   0.12555   0.12923   0.14289
 Alpha virt. eigenvalues --    0.15228   0.16026   0.17478   0.18955   0.21798

 Mulliken charges:
               1
     1  C   -0.148866
     2  C   -0.158531
     3  C   -0.137022
     4  C   -0.111848
     5  C   -0.527457
     6  C   -0.064106
     7  C    0.313518
     8  O   -0.462958
     9  O   -0.445303
    10  O   -0.515475
    11  C    0.529476
    12  C    0.585460
    13  O   -0.514286
    14  H    0.424236
    15  H    0.180578
    16  H    0.170626
    17  H    0.141561
    18  H    0.147136
    19  H    0.199793
    20  H    0.178233
    21  H    0.215237
 Sum of Mulliken charges =   0.00000

 Dipole moment (field-independent basis, Debye):
    X=             -2.4477    Y=              3.2754    Z=             -2.7469  Tot=              4.9259
 Quadrupole moment (field-independent basis, Debye-Ang):
   XX=            -69.3967   YY=            -78.8092   ZZ=            -75.3081
   XY=             15.9236   XZ=              2.3089   YZ=             -0.6541

 ESP charges:
               1
     1  C   -0.052698
     2  C   -0.337283
     3  C   -0.194352
     4  C   -0.002706
     5  C   -0.512311
     6  C   -0.320970
     7  C    0.422590
     8  O   -0.520544
     9  O   -0.476107
    10  O   -0.500200
    11  C    0.740507
    12  C    0.740948
    13  O   -0.407834
    14  H    0.351462
    15  H    0.154867
    16  H    0.179795
    17  H    0.144678
    18  H    0.119102
    19  H    0.131060
    20  H    0.150752
    21  H    0.189244
 Sum of ESP charges =   0.00000

 1\1\GINC-NODE692\Force\RB3LYP\6-31G(d)\C9H8O4\MBDX6CW3\07-Aug-2023\0\\
 #p b3lyp/6-31g* pop=mk empiricaldispersion=gd3 int(ultrafine) force\\a
 spirin\\0,1\C,13.7792182,10.91139793,13.43881011\C,11.97207093,13.0170
 1427,13.94036531\C,13.61110091,11.47418022,14.745152\C,12.62570381,12.
 41676092,14.98915195\C,10.14625311,14.66223478,10.3562355\C,12.9770064
 4,11.37600183,12.40787029\C,12.12747931,12.53559709,12.60687113\O,13.6
 314702,9.65933979,10.94341755\O,9.53075647,13.73903155,12.47257471\O,1
 2.96628356,11.4977169,10.09714723\C,13.10398817,10.73223114,11.1212992

 Normal termination of Gaussian 09 at Mon Aug  7 12:51:50 2023.
