 Gaussian 09, Revision D.01,
 Gaussian 09:  ES64L-G09RevD.01 24-Apr-2013

 -------------------------------------------------------------------
 #p b3lyp/6-31g* pop=mk empiricaldispersion=gd3 int(ultrafine) force
 -------------------------------------------------------------------

 -------
 aspirin
 -------
 Symbolic Z-matrix:
 Charge =  0 Multiplicity = 1

                         Standard orientation:
 ---------------------------------------------------------------------
 Center     Atomic      Atomic             Coordinates (Angstroms)
 Number     Number       Type             X           Y           Z
 ---------------------------------------------------------------------
      1          6           0       -2.344121   -0.419747    0.102735
      2          6           0       -0.057452   -1.796164   -0.472195
      3          6           0       -2.433215   -1.763176    0.044622
      4          6           0       -1.236536   -2.481579   -0.210146
      5          6           0        3.514610    0.490775   -0.261235
      6          6           0       -1.160359    0.337431   -0.077733
      7          6           0        0.050998   -0.365681   -0.331650
      8          8           0       -2.008292    2.422311    0.656450
      9          8           0        2.301861   -1.012193    1.225723
     10          8           0       -0.291646    2.300672   -0.640076
     11          6           0       -1.115081    1.752624    0.215513
     12          6           0        2.330068   -0.229512    0.302112
     13          8           0        1.250542    0.210642   -0.421365
     14          1           0        0.421310    1.661055   -0.681374
     15          1           0       -3.230121    0.190044    0.227878
     16          1           0        0.824140   -2.323740   -0.641554
     17          1           0       -3.438374   -2.289202    0.299673
     18          1           0       -1.296017   -3.605056   -0.336878
     19          1           0        4.419717   -0.110218   -0.109564
     20          1           0        3.375368    0.426699   -1.309089
     21          1           0        3.610788    1.529142    0.112910
 ---------------------------------------------------------------------

 SCF Done:  E(RB3LYP) =  -648.646272725     A.U. after   14 cycles

 The electronic state is 1-A.
 Alpha  occ. eigenvalues --  -19.25319 -19.18010 -19.17752 -19.12428 -10.36156
 Alpha  occ. eigenvalues --  -10.30657 -10.28643 -10.22237 -10.22147 -10.22117
 Alpha  occ. eigenvalues --  -10.21468 -10.21359 -10.20741  -1.17009  -1.11762
 Alpha  occ. eigenvalues --   -1.06776  -1.01465  -0.87784  -0.81628  -0.77920
 Alpha  occ. eigenvalues --   -0.75733  -0.69111  -0.65454  -0.61555  -0.59783
 Alpha  occ. eigenvalues --   -0.54821  -0.52837  -0.52326  -0.52071  -0.48523
 Alpha  occ. eigenvalues --   -0.48085  -0.45745  -0.44841  -0.44206  -0.43618
 Alpha  occ. eigenvalues --   -0.42706  -0.42178  -0.40175  -0.38374  -0.37376
 Alpha  occ. eigenvalues --   -0.36770  -0.34375  -0.31156  -0.30736  -0.27053
 Alpha  occ. eigenvalues --   -0.26495  -0.26126
 Alpha virt. eigenvalues --   -0.05850  -0.03877  -0.01514   0.03047   0.07709
 Alpha virt. eigenvalues --    0.07969   0.11461   0.13178   0.13842   0.14349
 Alpha virt. eigenvalues --    0.15326   0.16215   0.17006   0.19248   0.21964

 Mulliken charges:
               1
     1  C   -0.160269
     2  C   -0.138595
     3  C   -0.120947
     4  C   -0.135846
     5  C   -0.532968
     6  C    0.020702
     7  C    0.288230
     8  O   -0.450033
     9  O   -0.412902
    10  O   -0.540389
    11  C    0.501698
    12  C    0.588629
    13  O   -0.543444
    14  H    0.436664
    15  H    0.165189
    16  H    0.143693
    17  H    0.149252
    18  H    0.146712
    19  H    0.193757
    20  H    0.193686
    21  H    0.207180
 Sum of Mulliken charges =   0.00000

 Dipole moment (field-independent basis, Debye):
    X=              3.0803    Y=             -3.3508    Z=             -2.0658  Tot=              4.9984
 Quadrupole moment (field-independent basis, Debye-Ang):
   XX=            -64.4091   YY=            -79.8966   ZZ=            -77.6212
   XY=             13.1197   XZ=             -3.2767   YZ=              2.0419

 ESP charges:
               1
     1  C   -0.302305
     2  C   -0.140530
     3  C   -0.012520
     4  C   -0.136162
     5  C   -0.553046
     6  C    0.123112
     7  C    0.045210
     8  O   -0.454556
     9  O   -0.460700
    10  O   -0.418264
    11  C    0.490689
    12  C    0.735568
    13  O   -0.244152
    14  H    0.270720
    15  H    0.181509
    16  H    0.142530
    17  H    0.109738
    18  H    0.128242
    19  H    0.156965
    20  H    0.154490
    21  H    0.183461
 Sum of ESP charges =   0.00000

 1\1\GINC-NODE611\Force\RB3LYP\6-31G(d)\C9H8O4\MBDX6CW3\07-Aug-2023\0\\
 #p b3lyp/6-31g* pop=mk empiricaldispersion=gd3 int(ultrafine) force\\a
 spirin\\0,1\C,14.31747198,13.08746219,12.66867161\C,11.93881512,14.055
 08995,11.74152017\C,14.18075442,14.4266963,12.60642052\C,12.92940378,1
 4.93061543,12.16683388\C,8.82460654,11.18270278,11.44942045\C,13.32258
 582,12.13942051,12.32429147\C,12.05945849,12.62573123,11.88356757\O,14
 .39912081,10.22337079,13.20438623\O,9.524405,12.8537631,13.07992816\O,
 12.89966464,10.06283879,11.66538954\C,13.47936749,10.73411226,12.62651

 Normal termination of Gaussian 09 at Mon Aug  7 13:04:05 2023.
