 Gaussian 09, Revision D.01,
 Gaussian 09:  ES64L-G09RevD.01 24-Apr-2013

 -------------------------------------------------------------------
 #p b3lyp/6-31g* pop=mk empiricaldispersion=gd3 int(ultrafine) force
 -------------------------------------------------------------------

 -------
 aspirin
 -------
 Symbolic Z-matrix:
 Charge =  0 Multiplicity = 1

                         Standard orientation:
 ---------------------------------------------------------------------
 Center     Atomic      Atomic             Coordinates (Angstroms)
 Number     Number       Type             X           Y           Z
 ---------------------------------------------------------------------
      1          6           0        2.410923   -0.348991    0.136223
      2          6           0        0.097464   -1.859131   -0.442783
      3          6           0        2.471973   -1.780384    0.057398
      4          6           0        1.330800   -2.537970   -0.243530
      5          6           0       -3.559221    0.546825   -0.331357
      6          6           0        1.180530    0.264971   -0.100428
      7          6           0        0.049350   -0.457164   -0.271641
      8          8           0        1.979597    2.500652    0.676878
      9          8           0       -2.502911   -1.056821    1.172241
     10          8           0        0.249381    2.424844   -0.583175
     11          6           0        1.175939    1.811755    0.099749
     12          6           0       -2.382963   -0.240556    0.292103
     13          8           0       -1.227873    0.117462   -0.402251
     14          1           0       -0.296440    1.618089   -0.754233
     15          1           0        3.239795    0.238909    0.388763
     16          1           0       -0.799966   -2.429757   -0.494081
     17          1           0        3.411773   -2.215679    0.278869
     18          1           0        1.357057   -3.658464   -0.343631
     19          1           0       -4.489332    0.020413   -0.067046
     20          1           0       -3.519410    1.451942    0.252637
     21          1           0       -3.537796    0.689335   -1.345239
 ---------------------------------------------------------------------

 SCF Done:  E(RB3LYP) =  -648.663655101     A.U. after   15 cycles

 The electronic state is 1-A.
 Alpha  occ. eigenvalues --  -19.23796 -19.19072 -19.17543 -19.12619 -10.35880
 Alpha  occ. eigenvalues --  -10.31860 -10.28574 -10.22915 -10.22800 -10.22011
 Alpha  occ. eigenvalues --  -10.21874 -10.21622 -10.21295  -1.13460  -1.11842
 Alpha  occ. eigenvalues --   -1.05966  -1.01241  -0.88389  -0.79867  -0.78228
 Alpha  occ. eigenvalues --   -0.75535  -0.67517  -0.65144  -0.60966  -0.59664
 Alpha  occ. eigenvalues --   -0.55154  -0.51917  -0.51295  -0.50466  -0.49314
 Alpha  occ. eigenvalues --   -0.47756  -0.46439  -0.45276  -0.44016  -0.43510
 Alpha  occ. eigenvalues --   -0.42088  -0.41663  -0.40646  -0.39314  -0.38177
 Alpha  occ. eigenvalues --   -0.36650  -0.34454  -0.30872  -0.30572  -0.28182
 Alpha  occ. eigenvalues --   -0.26850  -0.26477
 Alpha virt. eigenvalues --   -0.04942  -0.03980  -0.01273   0.04126   0.06185
 Alpha virt. eigenvalues --    0.08708   0.11349   0.12829   0.13883   0.14399
 Alpha virt. eigenvalues --    0.15386   0.16160   0.16617   0.17560   0.19931

 Mulliken charges:
               1
     1  C   -0.151523
     2  C   -0.166193
     3  C   -0.137045
     4  C   -0.121121
     5  C   -0.518709
     6  C   -0.025291
     7  C    0.318689
     8  O   -0.455516
     9  O   -0.413632
    10  O   -0.532689
    11  C    0.522601
    12  C    0.586862
    13  O   -0.571682
    14  H    0.432780
    15  H    0.178816
    16  H    0.162941
    17  H    0.147246
    18  H    0.154377
    19  H    0.190301
    20  H    0.200559
    21  H    0.198231
 Sum of Mulliken charges =   0.00000

 Dipole moment (field-independent basis, Debye):
    X=             -1.9654    Y=             -3.5668    Z=             -2.1962  Tot=              4.6269
 Quadrupole moment (field-independent basis, Debye-Ang):
   XX=            -65.2354   YY=            -80.4832   ZZ=            -77.0580
   XY=            -12.8595   XZ=              3.1084   YZ=              0.8998

 ESP charges:
               1
     1  C   -0.134149
     2  C   -0.163261
     3  C   -0.090034
     4  C   -0.143393
     5  C   -0.494946
     6  C   -0.147208
     7  C    0.252274
     8  O   -0.483104
     9  O   -0.467051
    10  O   -0.465000
    11  C    0.634021
    12  C    0.739725
    13  O   -0.419807
    14  H    0.335730
    15  H    0.154828
    16  H    0.157023
    17  H    0.127735
    18  H    0.145099
    19  H    0.140587
    20  H    0.146796
    21  H    0.174137
 Sum of ESP charges =   0.00000

 1\1\GINC-NODE616\Force\RB3LYP\6-31G(d)\C9H8O4\MBDX6CW3\07-Aug-2023\0\\
 #p b3lyp/6-31g* pop=mk empiricaldispersion=gd3 int(ultrafine) force\\a
 spirin\\0,1\C,14.40303683,13.12274575,12.15065241\C,11.79356337,14.134
 92441,12.51672149\C,14.1509676,14.53419209,12.09493399\C,12.8603065,15
 .04711509,12.28954554\C,8.74961555,10.98744631,12.52889037\C,13.323390
 48,12.27748871,12.40896583\C,12.05642581,12.74692893,12.47815728\O,14.
 62141275,10.21193504,11.87081456\O,9.50845838,12.64711976,10.91089129\
 O,12.85601616,10.01631021,13.06757569\C,13.66125822,10.75573802,12.356

 Normal termination of Gaussian 09 at Mon Aug  7 13:05:03 2023.
