 Gaussian 09, Revision D.01,
 Gaussian 09:  ES64L-G09RevD.01 24-Apr-2013

 -------------------------------------------------------------------
 #p b3lyp/6-31g* pop=mk empiricaldispersion=gd3 int(ultrafine) force
 -------------------------------------------------------------------

 -------
 aspirin
 -------
 Symbolic Z-matrix:
 Charge =  0 Multiplicity = 1

                         Standard orientation:
 ---------------------------------------------------------------------
 Center     Atomic      Atomic             Coordinates (Angstroms)
 Number     Number       Type             X           Y           Z
 ---------------------------------------------------------------------
      1          6           0        2.361565   -0.355082    0.147335
      2          6           0        0.089689   -1.835394   -0.428509
      3          6           0        2.404153   -1.751266    0.281049
      4          6           0        1.327929   -2.475457   -0.187172
      5          6           0       -3.234788    0.829143    0.126132
      6          6           0        1.187781    0.318500   -0.094504
      7          6           0       -0.056820   -0.420214   -0.340551
      8          8           0        2.164012    2.442056    0.317587
      9          8           0       -2.554025   -1.272347    0.765833
     10          8           0       -0.000311    2.361308   -0.235100
     11          6           0        1.179921    1.795629    0.077525
     12          6           0       -2.396025   -0.389055   -0.008436
     13          8           0       -1.270773    0.097871   -0.557585
     14          1           0       -0.591275    1.630794   -0.576790
     15          1           0        3.203959    0.235555    0.410716
     16          1           0       -0.757042   -2.531747   -0.585426
     17          1           0        3.282651   -2.270773    0.625779
     18          1           0        1.373471   -3.564864   -0.137895
     19          1           0       -4.145644    0.468363    0.661250
     20          1           0       -2.714958    1.520165    0.728228
     21          1           0       -3.542811    1.180569   -0.888956
 ---------------------------------------------------------------------

 SCF Done:  E(RB3LYP) =  -648.649074007     A.U. after   15 cycles

 The electronic state is 1-A.
 Alpha  occ. eigenvalues --  -19.25733 -19.18477 -19.17984 -19.12961 -10.35328
 Alpha  occ. eigenvalues --  -10.31648 -10.29392 -10.22896 -10.22067 -10.21646
 Alpha  occ. eigenvalues --  -10.21111 -10.21054 -10.20985  -1.17975  -1.09747
 Alpha  occ. eigenvalues --   -1.08309  -1.01577  -0.87915  -0.81613  -0.78087
 Alpha  occ. eigenvalues --   -0.74991  -0.69446  -0.65232  -0.61531  -0.59872
 Alpha  occ. eigenvalues --   -0.54769  -0.53468  -0.52711  -0.51855  -0.48817
 Alpha  occ. eigenvalues --   -0.47392  -0.45572  -0.45125  -0.44259  -0.43675
 Alpha  occ. eigenvalues --   -0.42373  -0.41061  -0.39828  -0.39104  -0.37923
 Alpha  occ. eigenvalues --   -0.36696  -0.34910  -0.31178  -0.30613  -0.27319
 Alpha  occ. eigenvalues --   -0.27230  -0.26066
 Alpha virt. eigenvalues --   -0.06205  -0.04631  -0.02225   0.05045   0.07893
 Alpha virt. eigenvalues --    0.08802   0.12211   0.13062   0.13946   0.14490
 Alpha virt. eigenvalues --    0.15617   0.16134   0.18159   0.19375   0.22342

 Mulliken charges:
               1
     1  C   -0.175432
     2  C   -0.166553
     3  C   -0.118829
     4  C   -0.126518
     5  C   -0.523625
     6  C    0.003421
     7  C    0.280866
     8  O   -0.454411
     9  O   -0.386355
    10  O   -0.609285
    11  C    0.581782
    12  C    0.566492
    13  O   -0.520372
    14  H    0.450011
    15  H    0.177866
    16  H    0.163557
    17  H    0.148150
    18  H    0.147240
    19  H    0.180291
    20  H    0.211308
    21  H    0.170393
 Sum of Mulliken charges =   0.00000

 Dipole moment (field-independent basis, Debye):
    X=             -2.0073    Y=             -3.4396    Z=             -1.2471  Tot=              4.1731
 Quadrupole moment (field-independent basis, Debye-Ang):
   XX=            -69.7063   YY=            -81.3918   ZZ=            -74.2125
   XY=            -13.3734   XZ=              3.6436   YZ=              0.7951

 ESP charges:
               1
     1  C    0.028757
     2  C   -0.306121
     3  C   -0.220250
     4  C   -0.001257
     5  C   -0.441511
     6  C   -0.327259
     7  C    0.389718
     8  O   -0.482698
     9  O   -0.440049
    10  O   -0.585157
    11  C    0.729654
    12  C    0.708382
    13  O   -0.383662
    14  H    0.395478
    15  H    0.111675
    16  H    0.156755
    17  H    0.150993
    18  H    0.115841
    19  H    0.109476
    20  H    0.180250
    21  H    0.110983
 Sum of ESP charges =   0.00000

 1\1\GINC-NODE690\Force\RB3LYP\6-31G(d)\C9H8O4\MBDX6CW3\07-Aug-2023\0\\
 #p b3lyp/6-31g* pop=mk empiricaldispersion=gd3 int(ultrafine) force\\a
 spirin\\0,1\C,14.25086141,12.66133904,11.2137568\C,11.59311414,13.3034
 5869,10.75724959\C,13.85063171,13.03419709,9.92154419\C,12.57230878,13
 .52614999,9.76088166\C,9.34156954,11.26866698,13.79858136\C,13.3433187
 ,12.43888378,12.2221446\C,11.91477895,12.70154595,12.00871587\O,14.973
 38414,11.49136543,13.66347551\O,9.34867024,11.53660893,11.51449084\O,1
 2.86841393,11.64194226,14.40015912\C,13.82104516,11.76271081,13.457512

 Normal termination of Gaussian 09 at Mon Aug  7 13:15:16 2023.
