 Gaussian 09, Revision D.01,
 Gaussian 09:  ES64L-G09RevD.01 24-Apr-2013

 -------------------------------------------------------------------
 #p b3lyp/6-31g* pop=mk empiricaldispersion=gd3 int(ultrafine) force
 -------------------------------------------------------------------

 -------
 aspirin
 -------
 Symbolic Z-matrix:
 Charge =  0 Multiplicity = 1

                         Standard orientation:
 ---------------------------------------------------------------------
 Center     Atomic      Atomic             Coordinates (Angstroms)
 Number     Number       Type             X           Y           Z
 ---------------------------------------------------------------------
      1          6           0        2.360465   -0.353189    0.152907
      2          6           0        0.048693   -1.877535   -0.305693
      3          6           0        2.451681   -1.741281    0.093002
      4          6           0        1.306520   -2.416608   -0.194556
      5          6           0       -3.295003    0.842792    0.040081
      6          6           0        1.141275    0.329235   -0.067569
      7          6           0        0.020158   -0.499620   -0.195621
      8          8           0        1.902282    2.427306    0.662964
      9          8           0       -2.573291   -1.426312    0.577859
     10          8           0        0.156683    2.417505   -0.672505
     11          6           0        1.090069    1.803359    0.048480
     12          6           0       -2.329019   -0.329612    0.126552
     13          8           0       -1.121918    0.169637   -0.182651
     14          1           0       -0.316970    1.617579   -0.906832
     15          1           0        3.276185    0.265218    0.324208
     16          1           0       -0.885702   -2.464832   -0.592622
     17          1           0        3.391177   -2.242543    0.173457
     18          1           0        1.379379   -3.453026   -0.344613
     19          1           0       -3.008523    1.474534    0.866037
     20          1           0       -3.244123    1.230015   -0.912082
     21          1           0       -4.270508    0.322711    0.121620
 ---------------------------------------------------------------------

 SCF Done:  E(RB3LYP) =  -648.662020176     A.U. after   15 cycles

 The electronic state is 1-A.
 Alpha  occ. eigenvalues --  -19.24495 -19.19105 -19.17053 -19.12681 -10.35165
 Alpha  occ. eigenvalues --  -10.31682 -10.28109 -10.22047 -10.21794 -10.21392
 Alpha  occ. eigenvalues --  -10.21043 -10.20577 -10.20340  -1.17242  -1.11741
 Alpha  occ. eigenvalues --   -1.06286  -1.02389  -0.88963  -0.81833  -0.78469
 Alpha  occ. eigenvalues --   -0.75609  -0.69207  -0.66085  -0.60271  -0.59257
 Alpha  occ. eigenvalues --   -0.55774  -0.52777  -0.52473  -0.51280  -0.49428
 Alpha  occ. eigenvalues --   -0.47557  -0.45779  -0.45071  -0.44407  -0.43916
 Alpha  occ. eigenvalues --   -0.42492  -0.41212  -0.40924  -0.38940  -0.38340
 Alpha  occ. eigenvalues --   -0.36335  -0.35692  -0.31453  -0.30041  -0.28245
 Alpha  occ. eigenvalues --   -0.26357  -0.26016
 Alpha virt. eigenvalues --   -0.05093  -0.03714   0.00151   0.04833   0.07959
 Alpha virt. eigenvalues --    0.08482   0.12636   0.13222   0.13851   0.14596
 Alpha virt. eigenvalues --    0.16345   0.17162   0.17553   0.18845   0.22234

 Mulliken charges:
               1
     1  C   -0.182406
     2  C   -0.136312
     3  C   -0.098207
     4  C   -0.152647
     5  C   -0.508480
     6  C   -0.035088
     7  C    0.294681
     8  O   -0.447071
     9  O   -0.430767
    10  O   -0.555235
    11  C    0.544248
    12  C    0.557587
    13  O   -0.499538
    14  H    0.428782
    15  H    0.168074
    16  H    0.183069
    17  H    0.148637
    18  H    0.137828
    19  H    0.207646
    20  H    0.191294
    21  H    0.183905
 Sum of Mulliken charges =   0.00000

 Dipole moment (field-independent basis, Debye):
    X=             -1.6673    Y=             -2.8773    Z=             -1.9586  Tot=              3.8593
 Quadrupole moment (field-independent basis, Debye-Ang):
   XX=            -68.4072   YY=            -82.5407   ZZ=            -74.0453
   XY=            -13.6488   XZ=              1.1491   YZ=              0.8744

 ESP charges:
               1
     1  C   -0.051367
     2  C   -0.243816
     3  C   -0.160531
     4  C   -0.047488
     5  C   -0.549462
     6  C   -0.291618
     7  C    0.342615
     8  O   -0.494089
     9  O   -0.466785
    10  O   -0.513466
    11  C    0.729693
    12  C    0.734679
    13  O   -0.351670
    14  H    0.331394
    15  H    0.125374
    16  H    0.155783
    17  H    0.139585
    18  H    0.114564
    19  H    0.190086
    20  H    0.175075
    21  H    0.131444
 Sum of ESP charges =   0.00000

 1\1\GINC-NODE611\Force\RB3LYP\6-31G(d)\C9H8O4\MBDX6CW3\07-Aug-2023\0\\
 #p b3lyp/6-31g* pop=mk empiricaldispersion=gd3 int(ultrafine) force\\a
 spirin\\0,1\C,14.32826996,13.13571215,11.91319942\C,11.69044256,14.093
 84608,11.95883155\C,14.06750083,14.4524014,11.54301286\C,12.77787805,1
 4.87205744,11.64746046\C,9.15092945,10.64745307,12.569803\C,13.30881,1
 2.26870656,12.3711729\C,12.01166391,12.78705001,12.2761333\O,14.60253,
 10.31044006,12.29249001\O,9.30843234,12.75089025,11.34112477\O,12.8487
 7419,10.28566837,13.61703277\C,13.63237739,10.86598158,12.71292686\C,9

 Normal termination of Gaussian 09 at Mon Aug  7 13:07:11 2023.
