 Gaussian 09, Revision D.01,
 Gaussian 09:  ES64L-G09RevD.01 24-Apr-2013

 -------------------------------------------------------------------
 #p b3lyp/6-31g* pop=mk empiricaldispersion=gd3 int(ultrafine) force
 -------------------------------------------------------------------

 -------
 aspirin
 -------
 Symbolic Z-matrix:
 Charge =  0 Multiplicity = 1

                         Standard orientation:
 ---------------------------------------------------------------------
 Center     Atomic      Atomic             Coordinates (Angstroms)
 Number     Number       Type             X           Y           Z
 ---------------------------------------------------------------------
      1          6           0       -2.451739   -0.345182   -0.063578
      2          6           0       -0.092378   -1.874177   -0.143139
      3          6           0       -2.503703   -1.715340   -0.081872
      4          6           0       -1.325650   -2.496226   -0.091362
      5          6           0        3.386174    0.825788   -0.191135
      6          6           0       -1.212880    0.270637   -0.075916
      7          6           0       -0.000619   -0.494006   -0.132738
      8          8           0       -2.061912    2.419229    0.620312
      9          8           0        2.744762   -1.388456    0.590352
     10          8           0       -0.182686    2.471834   -0.379188
     11          6           0       -1.166354    1.725722    0.085740
     12          6           0        2.470985   -0.303049    0.117017
     13          8           0        1.200707    0.158043   -0.178607
     14          1           0        0.431629    1.786840   -0.680721
     15          1           0       -3.369678    0.288528   -0.216673
     16          1           0        0.774292   -2.517669   -0.134809
     17          1           0       -3.459096   -2.274590    0.031420
     18          1           0       -1.450338   -3.552029    0.007411
     19          1           0        3.009740    1.752022    0.271490
     20          1           0        4.394348    0.663964    0.208633
     21          1           0        3.439125    1.002724   -1.247819
 ---------------------------------------------------------------------

 SCF Done:  E(RB3LYP) =  -648.678808150     A.U. after   15 cycles

 The electronic state is 1-A.
 Alpha  occ. eigenvalues --  -19.24449 -19.18913 -19.17897 -19.11065 -10.36260
 Alpha  occ. eigenvalues --  -10.31123 -10.29188 -10.22956 -10.22163 -10.21859
 Alpha  occ. eigenvalues --  -10.21619 -10.21247 -10.21138  -1.14775  -1.10829
 Alpha  occ. eigenvalues --   -1.06200  -0.98096  -0.88713  -0.81342  -0.78835
 Alpha  occ. eigenvalues --   -0.75964  -0.68494  -0.66190  -0.60257  -0.59848
 Alpha  occ. eigenvalues --   -0.55110  -0.52550  -0.52447  -0.51239  -0.48786
 Alpha  occ. eigenvalues --   -0.47769  -0.45584  -0.44906  -0.43302  -0.43167
 Alpha  occ. eigenvalues --   -0.42930  -0.41647  -0.40345  -0.38909  -0.37828
 Alpha  occ. eigenvalues --   -0.36627  -0.35325  -0.30846  -0.29739  -0.27722
 Alpha  occ. eigenvalues --   -0.26120  -0.25008
 Alpha virt. eigenvalues --   -0.06136  -0.04015  -0.00523   0.04481   0.06950
 Alpha virt. eigenvalues --    0.08078   0.11233   0.12975   0.13767   0.14585
 Alpha virt. eigenvalues --    0.14779   0.15961   0.17622   0.17923   0.21784

 Mulliken charges:
               1
     1  C   -0.142257
     2  C   -0.170555
     3  C   -0.145480
     4  C   -0.116394
     5  C   -0.541915
     6  C    0.004416
     7  C    0.330147
     8  O   -0.482970
     9  O   -0.430287
    10  O   -0.538749
    11  C    0.498343
    12  C    0.617813
    13  O   -0.555471
    14  H    0.418748
    15  H    0.179084
    16  H    0.180984
    17  H    0.142943
    18  H    0.151884
    19  H    0.202259
    20  H    0.196574
    21  H    0.200883
 Sum of Mulliken charges =   0.00000

 Dipole moment (field-independent basis, Debye):
    X=              2.4434    Y=             -3.1924    Z=             -2.1844  Tot=              4.5753
 Quadrupole moment (field-independent basis, Debye-Ang):
   XX=            -67.9945   YY=            -82.0529   ZZ=            -74.6049
   XY=             16.9595   XZ=             -0.4091   YZ=             -1.7428

 ESP charges:
               1
     1  C   -0.074899
     2  C   -0.304230
     3  C   -0.135027
     4  C   -0.066797
     5  C   -0.542342
     6  C   -0.277176
     7  C    0.409343
     8  O   -0.506972
     9  O   -0.465223
    10  O   -0.499799
    11  C    0.688312
    12  C    0.748625
    13  O   -0.399930
    14  H    0.335889
    15  H    0.147041
    16  H    0.183927
    17  H    0.123272
    18  H    0.139635
    19  H    0.170998
    20  H    0.154347
    21  H    0.171003
 Sum of ESP charges =   0.00000

 1\1\GINC-NODE611\Force\RB3LYP\6-31G(d)\C9H8O4\MBDX6CW3\07-Aug-2023\0\\
 #p b3lyp/6-31g* pop=mk empiricaldispersion=gd3 int(ultrafine) force\\a
 spirin\\0,1\C,14.26652074,12.08135009,13.48158956\C,11.93908215,13.660
 47859,13.49272847\C,14.07353282,13.04006934,14.4428277\C,12.89524913,1
 3.81986976,14.47808385\C,9.37019408,12.48352766,10.11515021\C,13.28729
 868,11.90019488,12.52113938\C,12.10208654,12.70792603,12.5030458\O,14.
 12513494,9.75617588,11.79777861\O,9.20178652,13.3656013,12.3775804\O,1
 2.9035306,10.77283502,10.38097024\C,13.43862534,10.78230381,11.5868008

 Normal termination of Gaussian 09 at Mon Aug  7 12:57:55 2023.
