 Gaussian 09, Revision D.01,
 Gaussian 09:  ES64L-G09RevD.01 24-Apr-2013

 -------------------------------------------------------------------
 #p b3lyp/6-31g* pop=mk empiricaldispersion=gd3 int(ultrafine) force
 -------------------------------------------------------------------

 -------
 aspirin
 -------
 Symbolic Z-matrix:
 Charge =  0 Multiplicity = 1

                         Standard orientation:
 ---------------------------------------------------------------------
 Center     Atomic      Atomic             Coordinates (Angstroms)
 Number     Number       Type             X           Y           Z
 ---------------------------------------------------------------------
      1          6           0        2.442289    0.560954   -0.076574
      2          6           0       -0.086985    1.774757    0.382468
      3          6           0        2.304048    1.991017   -0.060814
      4          6           0        1.093599    2.566307    0.384144
      5          6           0       -3.435385   -0.812607    0.321928
      6          6           0        1.223695   -0.266976   -0.056607
      7          6           0       -0.006690    0.387828    0.044684
      8          8           0        2.323393   -2.332864   -0.367627
      9          8           0       -2.648069    1.199202   -0.735346
     10          8           0        0.323798   -2.394516    0.502009
     11          6           0        1.292884   -1.802223   -0.165108
     12          6           0       -2.421023    0.097788   -0.323288
     13          8           0       -1.190137   -0.340472   -0.042767
     14          1           0       -0.300134   -1.610785    0.467868
     15          1           0        3.330546    0.070224   -0.314701
     16          1           0       -1.056508    2.348147    0.481257
     17          1           0        3.178514    2.578378   -0.263864
     18          1           0        0.977404    3.670840    0.546858
     19          1           0       -3.267870   -0.848879    1.387011
     20          1           0       -4.438546   -0.394261    0.154760
     21          1           0       -3.333866   -1.845525   -0.014354
 ---------------------------------------------------------------------

 SCF Done:  E(RB3LYP) =  -648.647999227     A.U. after   15 cycles

 The electronic state is 1-A.
 Alpha  occ. eigenvalues --  -19.24554 -19.18601 -19.16871 -19.12776 -10.35480
 Alpha  occ. eigenvalues --  -10.31597 -10.29024 -10.23303 -10.22514 -10.22390
 Alpha  occ. eigenvalues --  -10.22332 -10.21945 -10.21805  -1.16143  -1.11512
 Alpha  occ. eigenvalues --   -1.06280  -1.02731  -0.87161  -0.80584  -0.77046
 Alpha  occ. eigenvalues --   -0.75217  -0.68426  -0.64891  -0.60015  -0.59214
 Alpha  occ. eigenvalues --   -0.54632  -0.52362  -0.51895  -0.51172  -0.48961
 Alpha  occ. eigenvalues --   -0.47107  -0.45499  -0.45455  -0.44182  -0.43577
 Alpha  occ. eigenvalues --   -0.42367  -0.41801  -0.40491  -0.38772  -0.37927
 Alpha  occ. eigenvalues --   -0.35789  -0.35309  -0.31278  -0.30237  -0.27169
 Alpha  occ. eigenvalues --   -0.26706  -0.25839
 Alpha virt. eigenvalues --   -0.05505  -0.04604  -0.00984   0.02886   0.06943
 Alpha virt. eigenvalues --    0.08934   0.11293   0.12510   0.13898   0.14609
 Alpha virt. eigenvalues --    0.15211   0.16858   0.17386   0.18325   0.21644

 Mulliken charges:
               1
     1  C   -0.154998
     2  C   -0.167310
     3  C   -0.125899
     4  C   -0.131777
     5  C   -0.536002
     6  C   -0.052757
     7  C    0.292600
     8  O   -0.429211
     9  O   -0.421860
    10  O   -0.550516
    11  C    0.531686
    12  C    0.593251
    13  O   -0.542192
    14  H    0.447011
    15  H    0.176049
    16  H    0.184375
    17  H    0.149857
    18  H    0.152131
    19  H    0.199721
    20  H    0.193140
    21  H    0.192701
 Sum of Mulliken charges =   0.00000

 Dipole moment (field-independent basis, Debye):
    X=             -2.5031    Y=              2.8376    Z=              1.1346  Tot=              3.9503
 Quadrupole moment (field-independent basis, Debye-Ang):
   XX=            -69.5620   YY=            -79.4316   ZZ=            -74.8968
   XY=             15.4748   XZ=             -3.5889   YZ=              2.3513

 ESP charges:
               1
     1  C    0.037861
     2  C   -0.321277
     3  C   -0.252174
     4  C   -0.012974
     5  C   -0.456441
     6  C   -0.254553
     7  C    0.364556
     8  O   -0.441206
     9  O   -0.480383
    10  O   -0.452866
    11  C    0.578128
    12  C    0.723688
    13  O   -0.384967
    14  H    0.325097
    15  H    0.113996
    16  H    0.203423
    17  H    0.163367
    18  H    0.120833
    19  H    0.162484
    20  H    0.132980
    21  H    0.130429
 Sum of ESP charges =   0.00000

 1\1\GINC-NODE611\Force\RB3LYP\6-31G(d)\C9H8O4\MBDX6CW3\07-Aug-2023\0\\
 #p b3lyp/6-31g* pop=mk empiricaldispersion=gd3 int(ultrafine) force\\a
 spirin\\0,1\C,14.32598352,12.96134233,11.2731719\C,11.56052947,13.6065
 3162,11.14179373\C,13.81419301,13.79728556,10.22259593\C,12.48956203,1
 4.28001642,10.30295491\C,9.01680231,11.44962907,13.74700427\C,13.36966
 872,12.27679372,12.16069221\C,12.00879931,12.53275275,11.9725585\O,14.
 98024821,10.99721074,13.31942558\O,9.25619066,11.94509864,11.40557885\
 O,13.05816531,11.30095124,14.30521846\C,13.84378195,11.2936604,13.2479

 Normal termination of Gaussian 09 at Mon Aug  7 13:13:23 2023.
