 Gaussian 09, Revision D.01,
 Gaussian 09:  ES64L-G09RevD.01 24-Apr-2013

 -------------------------------------------------------------------
 #p b3lyp/6-31g* pop=mk empiricaldispersion=gd3 int(ultrafine) force
 -------------------------------------------------------------------

 -------
 aspirin
 -------
 Symbolic Z-matrix:
 Charge =  0 Multiplicity = 1

                         Standard orientation:
 ---------------------------------------------------------------------
 Center     Atomic      Atomic             Coordinates (Angstroms)
 Number     Number       Type             X           Y           Z
 ---------------------------------------------------------------------
      1          6           0        2.304955    0.572320    0.150856
      2          6           0       -0.111891    1.772351   -0.307605
      3          6           0        2.183148    1.984938    0.217795
      4          6           0        0.978886    2.625121   -0.202469
      5          6           0       -3.359871   -1.084551    0.170791
      6          6           0        1.233290   -0.213965   -0.040388
      7          6           0       -0.043110    0.402158   -0.128704
      8          8           0        2.553374   -2.165590    0.323559
      9          8           0       -2.801744    1.182930    0.430642
     10          8           0        0.413741   -2.456779   -0.362866
     11          6           0        1.450832   -1.665428   -0.001756
     12          6           0       -2.482396    0.118748   -0.019155
     13          8           0       -1.182186   -0.292753   -0.242761
     14          1           0       -0.261215   -1.770044   -0.494755
     15          1           0        3.239157    0.171663    0.460165
     16          1           0       -1.069385    2.182550   -0.739071
     17          1           0        3.050921    2.604041    0.343982
     18          1           0        0.933785    3.732130   -0.289964
     19          1           0       -2.954843   -1.748480    0.942982
     20          1           0       -4.413667   -0.798448    0.415293
     21          1           0       -3.313291   -1.586027   -0.863417
 ---------------------------------------------------------------------

 SCF Done:  E(RB3LYP) =  -648.657636966     A.U. after   15 cycles

 The electronic state is 1-A.
 Alpha  occ. eigenvalues --  -19.24978 -19.19106 -19.17766 -19.12443 -10.36099
 Alpha  occ. eigenvalues --  -10.31931 -10.28886 -10.23074 -10.22401 -10.22170
 Alpha  occ. eigenvalues --  -10.21317 -10.20976 -10.20744  -1.16131  -1.09697
 Alpha  occ. eigenvalues --   -1.07310  -0.99409  -0.88625  -0.80753  -0.78901
 Alpha  occ. eigenvalues --   -0.75083  -0.68913  -0.65824  -0.60468  -0.60008
 Alpha  occ. eigenvalues --   -0.55067  -0.52428  -0.52188  -0.51626  -0.48766
 Alpha  occ. eigenvalues --   -0.47363  -0.45582  -0.44728  -0.43455  -0.43331
 Alpha  occ. eigenvalues --   -0.42840  -0.41210  -0.40939  -0.38979  -0.37346
 Alpha  occ. eigenvalues --   -0.36301  -0.35683  -0.30911  -0.30109  -0.27567
 Alpha  occ. eigenvalues --   -0.26283  -0.25482
 Alpha virt. eigenvalues --   -0.06554  -0.04539  -0.01352   0.04299   0.07152
 Alpha virt. eigenvalues --    0.07840   0.11055   0.12878   0.13638   0.14223
 Alpha virt. eigenvalues --    0.15153   0.16447   0.17316   0.18864   0.21914

 Mulliken charges:
               1
     1  C   -0.175642
     2  C   -0.167542
     3  C   -0.144484
     4  C   -0.125490
     5  C   -0.510571
     6  C    0.023737
     7  C    0.321394
     8  O   -0.486137
     9  O   -0.398782
    10  O   -0.583811
    11  C    0.556701
    12  C    0.584234
    13  O   -0.546642
    14  H    0.436824
    15  H    0.183727
    16  H    0.162760
    17  H    0.140509
    18  H    0.157657
    19  H    0.208876
    20  H    0.195700
    21  H    0.166981
 Sum of Mulliken charges =   0.00000

 Dipole moment (field-independent basis, Debye):
    X=             -3.1718    Y=              2.8594    Z=             -1.0622  Tot=              4.4005
 Quadrupole moment (field-independent basis, Debye-Ang):
   XX=            -72.8909   YY=            -79.7948   ZZ=            -73.3574
   XY=             17.4540   XZ=              1.4516   YZ=             -1.4285

 ESP charges:
               1
     1  C   -0.010954
     2  C   -0.231613
     3  C   -0.166724
     4  C   -0.089226
     5  C   -0.440560
     6  C   -0.304990
     7  C    0.396684
     8  O   -0.487439
     9  O   -0.442051
    10  O   -0.521844
    11  C    0.677843
    12  C    0.698515
    13  O   -0.370812
    14  H    0.348322
    15  H    0.123998
    16  H    0.130345
    17  H    0.128704
    18  H    0.147803
    19  H    0.170666
    20  H    0.141074
    21  H    0.102260
 Sum of ESP charges =   0.00000

 1\1\GINC-NODE690\Force\RB3LYP\6-31G(d)\C9H8O4\MBDX6CW3\07-Aug-2023\0\\
 #p b3lyp/6-31g* pop=mk empiricaldispersion=gd3 int(ultrafine) force\\a
 spirin\\0,1\C,14.16405916,12.16531396,13.46494913\C,12.01442957,13.827
 62432,13.13750148\C,13.92946362,13.22137713,14.38391685\C,12.92673349,
 14.20076609,14.11552548\C,9.02557373,11.98409438,10.56684613\C,13.2968
 8549,11.89245462,12.47659564\C,12.10566401,12.66154528,12.39851475\O,1
 4.51777935,9.92849946,11.8967545\O,9.29014087,13.43957186,12.39224792\
 O,12.81185985,10.54492712,10.5388689\C,13.58355284,10.72293401,11.6365

 Normal termination of Gaussian 09 at Mon Aug  7 12:57:44 2023.
