 Gaussian 09, Revision D.01,
 Gaussian 09:  ES64L-G09RevD.01 24-Apr-2013

 -------------------------------------------------------------------
 #p b3lyp/6-31g* pop=mk empiricaldispersion=gd3 int(ultrafine) force
 -------------------------------------------------------------------

 -------
 aspirin
 -------
 Symbolic Z-matrix:
 Charge =  0 Multiplicity = 1

                         Standard orientation:
 ---------------------------------------------------------------------
 Center     Atomic      Atomic             Coordinates (Angstroms)
 Number     Number       Type             X           Y           Z
 ---------------------------------------------------------------------
      1          6           0        2.317892    0.398110    0.147701
      2          6           0        0.888265   -1.848142   -0.534510
      3          6           0        2.873748   -0.854124    0.264115
      4          6           0        2.157478   -2.020586   -0.130348
      5          6           0       -3.449690   -0.406994   -0.142938
      6          6           0        0.943020    0.566075   -0.113172
      7          6           0        0.222815   -0.604831   -0.450694
      8          8           0        0.841845    2.853246    0.643815
      9          8           0       -1.793767   -1.233277    1.410398
     10          8           0       -0.780330    2.146753   -0.701961
     11          6           0        0.300593    1.936697    0.036899
     12          6           0       -2.015363   -0.798899    0.284810
     13          8           0       -1.105764   -0.426790   -0.668089
     14          1           0       -1.041259    1.191835   -0.853036
     15          1           0        2.905197    1.315465    0.265118
     16          1           0        0.264454   -2.691155   -0.760667
     17          1           0        3.872654   -0.951478    0.592055
     18          1           0        2.665370   -2.924283   -0.244994
     19          1           0       -4.091390   -0.691840    0.661485
     20          1           0       -3.594422    0.692736   -0.243272
     21          1           0       -3.709022   -0.864570   -1.061175
 ---------------------------------------------------------------------

 SCF Done:  E(RB3LYP) =  -648.672675935     A.U. after   15 cycles

 The electronic state is 1-A.
 Alpha  occ. eigenvalues --  -19.25608 -19.18953 -19.17535 -19.12718 -10.36103
 Alpha  occ. eigenvalues --  -10.32046 -10.28473 -10.22701 -10.21658 -10.21641
 Alpha  occ. eigenvalues --  -10.21484 -10.21423 -10.21027  -1.16437  -1.10311
 Alpha  occ. eigenvalues --   -1.05595  -1.00560  -0.88439  -0.80321  -0.78548
 Alpha  occ. eigenvalues --   -0.75336  -0.68557  -0.65866  -0.60701  -0.60175
 Alpha  occ. eigenvalues --   -0.55416  -0.53037  -0.52041  -0.51732  -0.49454
 Alpha  occ. eigenvalues --   -0.47309  -0.45306  -0.44654  -0.43897  -0.43832
 Alpha  occ. eigenvalues --   -0.42675  -0.41890  -0.41407  -0.38129  -0.38013
 Alpha  occ. eigenvalues --   -0.37171  -0.34104  -0.30742  -0.30502  -0.27899
 Alpha  occ. eigenvalues --   -0.26708  -0.26603
 Alpha virt. eigenvalues --   -0.05813  -0.03315  -0.02647   0.03911   0.08167
 Alpha virt. eigenvalues --    0.08915   0.12511   0.13289   0.13902   0.14977
 Alpha virt. eigenvalues --    0.15412   0.15905   0.17505   0.18084   0.21072

 Mulliken charges:
               1
     1  C   -0.159160
     2  C   -0.137681
     3  C   -0.134257
     4  C   -0.117477
     5  C   -0.536440
     6  C    0.002809
     7  C    0.307978
     8  O   -0.462479
     9  O   -0.413801
    10  O   -0.570571
    11  C    0.534348
    12  C    0.579911
    13  O   -0.549608
    14  H    0.449220
    15  H    0.174290
    16  H    0.142113
    17  H    0.145625
    18  H    0.154432
    19  H    0.203331
    20  H    0.196914
    21  H    0.190502
 Sum of Mulliken charges =   0.00000

 Dipole moment (field-independent basis, Debye):
    X=             -0.6069    Y=             -4.4783    Z=             -2.5021  Tot=              5.1656
 Quadrupole moment (field-independent basis, Debye-Ang):
   XX=            -58.1385   YY=            -83.3210   ZZ=            -78.4360
   XY=             -4.4716   XZ=              2.8195   YZ=              1.5300

 ESP charges:
               1
     1  C   -0.118741
     2  C   -0.218165
     3  C   -0.116690
     4  C   -0.072329
     5  C   -0.432417
     6  C   -0.182956
     7  C    0.270790
     8  O   -0.488313
     9  O   -0.438620
    10  O   -0.500711
    11  C    0.671124
    12  C    0.639829
    13  O   -0.336605
    14  H    0.335265
    15  H    0.150128
    16  H    0.151429
    17  H    0.128018
    18  H    0.139918
    19  H    0.139703
    20  H    0.141555
    21  H    0.137791
 Sum of ESP charges =   0.00000

 1\1\GINC-NODE616\Force\RB3LYP\6-31G(d)\C9H8O4\MBDX6CW3\07-Aug-2023\0\\
 #p b3lyp/6-31g* pop=mk empiricaldispersion=gd3 int(ultrafine) force\\a
 spirin\\0,1\C,14.34502482,12.9579556,12.6184845\C,11.93867445,14.06744
 838,13.34882617\C,14.24295902,14.30053234,12.89720654\C,13.01075578,14
 .87606525,13.32113504\C,8.91528726,11.09535933,11.59557104\C,13.197908
 4,12.1500206,12.4846673\C,11.96763873,12.7443707,12.85456181\O,14.3050
 2772,10.37300706,11.28845453\O,10.16073942,12.96543956,10.70713162\O,1
 2.38194346,9.88891304,12.29299188\C,13.31653595,10.74735284,11.9082224

 Normal termination of Gaussian 09 at Mon Aug  7 13:02:29 2023.
