 Gaussian 09, Revision D.01,
 Gaussian 09:  ES64L-G09RevD.01 24-Apr-2013

 --------------------------------------------------------
 #p b3lyp/6-31g* empiricaldispersion=gd3 opt=modredundant
 --------------------------------------------------------

 --------------
 salicylic_acid
 --------------
 Symbolic Z-matrix:
 Charge =  0 Multiplicity = 1

 SCF Done:  E(RB3LYP) =  -496.061769129     A.U. after   15 cycles

 The electronic state is 1-A.
 Alpha  occ. eigenvalues --  -19.20964 -19.17263 -19.15633 -10.33748 -10.26664
 Alpha  occ. eigenvalues --  -10.20940 -10.20675 -10.20627 -10.19353 -10.19322
 Alpha  occ. eigenvalues --   -1.12059  -1.06359  -1.02363  -0.86117  -0.77687
 Alpha  occ. eigenvalues --   -0.74783  -0.67085  -0.62337  -0.60675  -0.54260
 Alpha  occ. eigenvalues --   -0.52333  -0.50287  -0.47685  -0.46317  -0.46183
 Alpha  occ. eigenvalues --   -0.44047  -0.41068  -0.40765  -0.39279  -0.37962
 Alpha  occ. eigenvalues --   -0.35197  -0.34121  -0.33228  -0.29189  -0.26607
 Alpha  occ. eigenvalues --   -0.22941
 Alpha virt. eigenvalues --   -0.05334   0.00309   0.05026   0.06628   0.09623
 Alpha virt. eigenvalues --    0.13991   0.15187   0.16928   0.17407   0.18195
 Alpha virt. eigenvalues --    0.22419   0.24758   0.26301   0.29594   0.32517

 Mulliken charges:
               1
     1  C    0.571745
     2  C    0.024437
     3  C    0.308200
     4  O   -0.645831
     5  C   -0.162207
     6  C   -0.123011
     7  C   -0.141101
     8  C   -0.171593
     9  O   -0.533232
    10  O   -0.576222
    11  H    0.445149
    12  H    0.148231
    13  H    0.140760
    14  H    0.134959
    15  H    0.161666
    16  H    0.418049
 Sum of Mulliken charges =   0.00000

 Dipole moment (field-independent basis, Debye):
    X=             -0.1547    Y=             -2.0648    Z=             -0.0003  Tot=              2.0706
 Quadrupole moment (field-independent basis, Debye-Ang):
   XX=            -46.4227   YY=            -57.3291   ZZ=            -58.2068
   XY=             -2.9847   XZ=             -0.0006   YZ=             -0.0007

 Optimization completed.
    -- Stationary point found.

                         Standard orientation:
 ---------------------------------------------------------------------
 Center     Atomic      Atomic             Coordinates (Angstroms)
 Number     Number       Type             X           Y           Z
 ---------------------------------------------------------------------
      1          6           0        1.666811   -0.213121   -0.000101
      2          6           0        0.202091   -0.246931   -0.000061
      3          6           0       -0.510308    0.981779   -0.000021
      4          8           0        0.093442    2.182329   -0.000051
      5          6           0       -1.914558    0.959130    0.000039
      6          6           0       -2.593419   -0.250310    0.000049
      7          6           0       -1.897939   -1.470670    0.000009
      8          6           0       -0.512779   -1.461411   -0.000051
      9          8           0        2.344282    0.816578    0.000119
     10          8           0        2.260521   -1.425772    0.000019
     11          1           0        1.068592    2.023499   -0.000151
     12          1           0       -2.439318    1.908840    0.000069
     13          1           0       -3.680349   -0.249150    0.000089
     14          1           0       -2.439599   -2.411300    0.000019
     15          1           0        0.044471   -2.391901   -0.000071
     16          1           0        3.220851   -1.255872    0.000139
 ---------------------------------------------------------------------

 Normal termination of Gaussian 09 at Thu Jul  6 18:08:40 2023.
